# vtk DataFile Version 4.2
vtk output
ASCII
DATASET POLYDATA
POINTS 2272 float
-19.5432 23.1484 -36.0756 -19.8285 22.995 -35.7414 -20.141 22.8083 -35.4405 
-20.4788 22.5905 -35.1706 -20.8399 22.344 -34.9293 -21.2223 22.0712 -34.7145 
-21.6242 21.7745 -34.5238 -22.0434 21.4563 -34.355 -22.4782 21.1189 -34.2058 
-22.9264 20.7646 -34.074 -23.3862 20.3959 -33.9573 -23.8555 20.0151 -33.8534 
-24.3325 19.6246 -33.7601 -24.8151 19.2268 -33.6751 -25.3014 18.824 -33.5961 
-25.7894 18.4186 -33.5209 -26.2772 18.013 -33.4472 -26.7628 17.6095 -33.3728 
-27.2442 17.2105 -33.2953 -27.7196 16.8184 -33.2126 -28.1868 16.4356 -33.1222 
-28.6445 16.0638 -33.0224 -29.0935 15.7027 -32.912 -29.5351 15.3513 -32.7904 
-29.9706 15.0087 -32.6569 -30.4013 14.6739 -32.5109 -30.8285 14.346 -32.3515 
-31.2535 14.024 -32.1782 -31.6777 13.707 -31.9902 -32.1024 13.394 -31.7868 
-32.5288 13.0841 -31.5673 -32.9583 12.7763 -31.3311 -33.3922 12.4697 -31.0774 
-33.8316 12.1634 -30.8061 -34.2764 11.8569 -30.5189 -34.7266 11.5496 -30.2181 
-35.1819 11.2412 -29.906 -35.6421 10.931 -29.5848 -36.107 10.6187 -29.2568 
-36.5765 10.3037 -28.9243 -37.0502 9.98563 -28.5896 -37.528 9.66405 -28.2547 
-38.0092 9.3391 -27.9212 -38.493 9.01104 -27.5906 -38.9786 8.6801 -27.2642 
-39.4655 8.34654 -26.9434 -39.9527 8.0106 -26.6296 -40.4396 7.67253 -26.3243 
-40.9254 7.33257 -26.0288 -41.4094 6.99096 -25.7446 -41.8908 6.64797 -25.473 
-42.3689 6.30382 -25.2154 -42.8429 5.95877 -24.9732 -43.3122 5.61306 -24.7479 
-43.7759 5.26694 -24.5409 -44.2334 4.92066 -24.3535 -44.6838 4.57445 -24.1871 
-45.1264 4.22857 -24.0432 -45.5606 3.88327 -23.9231 -45.9855 3.53878 -23.8282 
-46.4004 3.19535 -23.7601 -46.8047 2.85318 -23.7196 -47.1986 2.51225 -23.7066 
-47.5823 2.17249 -23.7204 -47.9561 1.83381 -23.7604 -48.3204 1.49616 -23.826 
-48.6753 1.15946 -23.9166 -49.0212 0.823628 -24.0316 -49.3583 0.488604 -24.1703 
-49.687 0.15431 -24.3322 -50.0075 -0.179324 -24.5167 -50.3201 -0.512372 -24.7231 
-50.6251 -0.844906 -24.9508 -50.9228 -1.177 -25.1992 -51.2134 -1.50872 -25.4677 
-51.4973 -1.84015 -25.7556 -51.7747 -2.17135 -26.0625 -52.0459 -2.50239 -26.3876 
-52.3113 -2.83336 -26.7303 -52.571 -3.16432 -27.0901 -52.8253 -3.49534 -27.4663 
-53.0746 -3.82644 -27.8583 -53.3186 -4.15734 -28.2655 -53.5572 -4.48773 -28.6873 
-53.7902 -4.81729 -29.1232 -54.0175 -5.14568 -29.5726 -54.2388 -5.47259 -30.0348 
-54.454 -5.79768 -30.5094 -54.6629 -6.12064 -30.9956 -54.8653 -6.44114 -31.4929 
-55.0611 -6.75885 -32.0008 -55.2501 -7.07345 -32.5186 -55.432 -7.38461 -33.0458 
-55.6068 -7.69202 -33.5817 -55.7742 -7.99533 -34.1258 -55.934 -8.29424 -34.6776 
-56.0862 -8.58842 -35.2363 -56.2304 -8.87753 -35.8014 -56.3666 -9.16126 -36.3724 
-56.4945 -9.43929 -36.9486 -56.614 -9.71128 -37.5295 -56.7248 -9.97691 -38.1145 
-56.8269 -10.2359 -38.703 -56.9201 -10.4878 -39.2943 -57.004 -10.7324 -39.888 
-57.0787 -10.9694 -40.4834 -57.1439 -11.1983 -41.08 -57.1994 -11.419 -41.6771 
-57.245 -11.631 -42.2742 -57.2806 -11.8341 -42.8706 -57.306 -12.0279 -43.4659 
-57.321 -12.2121 -44.0594 -57.3254 -12.3863 -44.6505 -57.3191 -12.5503 -45.2386 
-57.3019 -12.7038 -45.8232 -57.2736 -12.8463 -46.4037 -57.234 -12.9776 -46.9794 
-57.1829 -13.0973 -47.5499 -57.1203 -13.2052 -48.1144 -57.0458 -13.3008 -48.6724 
-56.9593 -13.3839 -49.2234 -56.8608 -13.4545 -49.767 -56.7514 -13.5134 -50.3037 
-56.6321 -13.5619 -50.8342 -56.5041 -13.6013 -51.3595 -56.3685 -13.6327 -51.8802 
-56.2266 -13.6575 -52.3971 -56.0794 -13.6768 -52.911 -55.9281 -13.6919 -53.4227 
-55.7739 -13.704 -53.9329 -55.6179 -13.7144 -54.4425 -55.4613 -13.7242 -54.9521 
-55.3052 -13.7348 -55.4627 -55.1508 -13.7473 -55.9749 -54.9992 -13.763 -56.4895 
-54.8517 -13.7831 -57.0073 -54.7092 -13.8088 -57.529 -54.5731 -13.8415 -58.0556 
-54.4444 -13.8822 -58.5876 -54.3243 -13.9323 -59.1259 -54.214 -13.993 -59.6714 
-54.1134 -14.0641 -60.2238 -54.0173 -14.1402 -60.7797 -53.9193 -14.2144 -61.3348 
-53.813 -14.2799 -61.8846 -53.6921 -14.3298 -62.4249 -53.5501 -14.3573 -62.9513 
-53.3806 -14.3555 -63.4594 -53.1773 -14.3175 -63.945 -52.9359 -14.2388 -64.4049 
-52.6604 -14.1237 -64.8421 -52.3569 -13.9788 -65.2606 -52.0316 -13.8106 -65.6647 
-51.6907 -13.6258 -66.0585 -51.3403 -13.4308 -66.4461 -50.9865 -13.2324 -66.8318 
-50.6356 -13.0371 -67.2197 -50.2923 -12.8501 -67.613 -49.9569 -12.6714 -68.0113 
-49.6283 -12.4997 -68.4132 -49.3055 -12.3336 -68.8172 -48.9872 -12.1717 -69.222 
-48.6725 -12.0128 -69.6262 -48.3603 -11.8555 -70.0283 -48.0494 -11.6984 -70.427 
-47.7389 -11.5402 -70.8209 -47.4276 -11.3796 -71.2086 -47.1145 -11.2151 -71.5886 
-46.7985 -11.0455 -71.9596 -46.4785 -10.8694 -72.3202 -46.1534 -10.6854 -72.669 
-45.8222 -10.4923 -73.0045 -45.4837 -10.2886 -73.3254 -45.137 -10.073 -73.6303 
-44.7808 -9.84417 -73.9177 -44.4142 -9.60079 -74.1864 -44.0361 -9.34148 -74.4348 
-43.6457 -9.0653 -74.6619 -43.2436 -8.77291 -74.8683 -42.8307 -8.4654 -75.0549 
-42.4081 -8.14382 -75.2224 -41.9765 -7.80925 -75.3718 -41.5371 -7.46276 -75.504 
-41.0906 -7.10542 -75.6198 -40.638 -6.7383 -75.7202 -40.1803 -6.36246 -75.8059 
-39.7184 -5.97898 -75.8779 -39.2532 -5.58893 -75.937 -38.7856 -5.19338 -75.9842 
-38.3167 -4.7934 -76.0203 -37.8472 -4.39005 -76.0461 -37.3783 -3.98441 -76.0626 
-36.9107 -3.57755 -76.0707 -36.4454 -3.17054 -76.0711 -35.9834 -2.76445 -76.0649 
-35.5256 -2.36034 -76.0527 -35.073 -1.95929 -76.0357 -34.6262 -1.56216 -76.0144 
-34.1852 -1.16899 -75.9892 -33.7497 -0.779601 -75.9603 -33.3196 -0.39382 -75.9278 
-32.8945 -0.0114744 -75.8918 -32.4743 0.367608 -75.8525 -32.0586 0.743599 -75.8102 
-31.6472 1.11667 -75.7648 -31.2398 1.487 -75.7167 -30.8363 1.85476 -75.666 
-30.4363 2.22012 -75.6128 -30.0396 2.58325 -75.5572 -29.6461 2.9443 -75.4994 
-29.256 3.30328 -75.4383 -28.8696 3.66019 -75.3731 -28.4874 4.015 -75.3027 
-28.1096 4.3677 -75.2261 -27.7365 4.71829 -75.1423 -27.3687 5.06674 -75.0502 
-27.0063 5.41305 -74.9489 -26.6498 5.75721 -74.8373 -26.2993 6.09925 -74.7148 
-25.955 6.4392 -74.5806 -25.6172 6.7771 -74.434 -25.2859 7.113 -74.2744 
-24.9614 7.44692 -74.101 -24.6439 7.77891 -73.9131 -24.3336 8.109 -73.7101 
-24.0306 8.43722 -73.4912 -23.7352 8.76362 -73.2557 -23.4475 9.08823 -73.003 
-23.1677 9.4111 -72.7323 -22.896 9.73224 -72.443 -22.6326 10.0517 -72.1343 
-22.3777 10.3695 -71.8056 -22.1314 10.6858 -71.4561 -21.894 11.0004 -71.0852 
-21.6657 11.3136 -70.6921 -21.4465 11.6252 -70.2762 -21.2368 11.9354 -69.8367 
-21.0364 12.2442 -69.3738 -20.8438 12.5521 -68.8906 -20.6572 12.8593 -68.3911 
-20.475 13.1663 -67.8792 -20.2952 13.4735 -67.359 -20.1162 13.7814 -66.8344 
-19.9362 14.0903 -66.3094 -19.7533 14.4006 -65.7878 -19.5659 14.7128 -65.2738 
-19.3721 15.0272 -64.7712 -19.1702 15.3443 -64.2841 -18.9585 15.6644 -63.8164 
-18.7355 15.9879 -63.3711 -18.5021 16.3143 -62.9472 -18.2595 16.6431 -62.5429 
-18.0089 16.9739 -62.1562 -17.7516 17.306 -61.7852 -17.4887 17.639 -61.428 
-17.2215 17.9723 -61.0828 -16.9512 18.3055 -60.7475 -16.679 18.638 -60.4204 
-16.4058 18.9693 -60.1001 -16.1326 19.2992 -59.7854 -15.8601 19.6271 -59.4751 
-15.5892 19.9526 -59.1679 -15.3209 20.2754 -58.8627 -15.056 20.595 -58.5581 
-14.7954 20.911 -58.253 -14.54 21.2229 -57.9461 -14.2906 21.5305 -57.6362 
-14.0482 21.8332 -57.3221 -13.8136 22.1306 -57.0024 -13.5876 22.4224 -56.6761 
-13.3712 22.7081 -56.3419 -13.1653 22.9873 -55.9984 -12.9707 23.2596 -55.6446 
-12.7882 23.5246 -55.2792 -12.6189 23.7818 -54.9009 -12.4635 24.0309 -54.5085 
-12.3229 24.2714 -54.1008 -12.1983 24.5026 -53.6771 -12.0914 24.7223 -53.2395 
-12.0045 24.9278 -52.7904 -11.9395 25.1167 -52.3323 -11.8985 25.2864 -51.8679 
-11.8837 25.4344 -51.3996 -11.8971 25.558 -50.93 -11.9408 25.6548 -50.4616 
-12.0169 25.7221 -49.997 -12.1274 25.7575 -49.5386 -12.2745 25.7583 -49.0892 
-12.4602 25.722 -48.6511 -12.6854 25.6475 -48.226 -12.9454 25.5392 -47.8121 
-13.2347 25.403 -47.4065 -13.5474 25.2446 -47.0065 -13.8778 25.07 -46.6092 
-14.2201 24.885 -46.2119 -14.5685 24.6954 -45.8118 -14.9174 24.5071 -45.4061 
-15.2613 24.3254 -44.9923 -15.5968 24.1537 -44.5692 -15.9211 23.9948 -44.136 
-16.2312 23.8515 -43.6917 -16.524 23.7267 -43.2355 -16.7967 23.6232 -42.7666 
-17.0464 23.5439 -42.2839 -17.2699 23.4916 -41.7867 -17.4662 23.4673 -41.2751 
-17.6403 23.4651 -40.7539 -17.7993 23.4773 -40.2289 -17.95 23.4961 -39.706 
-18.0995 23.5138 -39.1909 -18.2545 23.5227 -38.6895 -18.4221 23.5149 -38.2076 
-18.6091 23.4829 -37.751 -18.8211 23.4203 -37.3244 -19.0582 23.3272 -36.9275 
-19.319 23.2052 -36.559 -27.5202 28.0283 -42.101 -27.8255 27.8908 -41.6511 
-28.1438 27.7399 -41.2083 -28.4735 27.5772 -40.7718 -28.8131 27.4042 -40.3408 
-29.1611 27.2226 -39.9145 -29.5159 27.0338 -39.4922 -29.8761 26.8394 -39.073 
-30.2401 26.641 -38.6562 -30.6063 26.4402 -38.2411 -30.9733 26.2385 -37.8267 
-31.3395 26.0375 -37.4124 -31.7033 25.8387 -36.9974 -32.0636 25.6434 -36.581 
-32.42 25.4519 -36.1633 -32.7725 25.2642 -35.7445 -33.1209 25.0802 -35.3249 
-33.4653 24.9 -34.9046 -33.8055 24.7235 -34.4839 -34.1416 24.5507 -34.0629 
-34.4734 24.3817 -33.642 -34.801 24.2163 -33.2213 -35.1248 24.0539 -32.8015 
-35.4454 23.8939 -32.3832 -35.7634 23.7356 -31.9669 -36.0792 23.5784 -31.5534 
-36.3935 23.4216 -31.1433 -36.7068 23.2645 -30.7371 -37.0197 23.1064 -30.3356 
-37.3326 22.9468 -29.9393 -37.6462 22.7849 -29.5489 -37.961 22.6201 -29.1651 
-38.2776 22.4516 -28.7884 -38.5964 22.2789 -28.4194 -38.9181 22.1013 -28.0589 
-39.2432 21.9182 -27.7074 -39.5723 21.7287 -27.3656 -39.9058 21.5324 -27.0341 
-40.2444 21.3285 -26.7135 -40.5886 21.1163 -26.4044 -40.939 20.8953 -26.1076 
-41.296 20.6648 -25.8235 -41.6592 20.4251 -25.5522 -42.0285 20.1764 -25.2938 
-42.4034 19.9191 -25.0482 -42.7836 19.6535 -24.8155 -43.1687 19.3799 -24.5957 
-43.5583 19.0985 -24.3888 -43.9521 18.8098 -24.1947 -44.3498 18.514 -24.0137 
-44.751 18.2114 -23.8455 -45.1553 17.9024 -23.6903 -45.5623 17.5872 -23.5481 
-45.9717 17.2661 -23.4188 -46.3832 16.9396 -23.3025 -46.7964 16.6078 -23.1993 
-47.2109 16.2711 -23.109 -47.6263 15.9298 -23.0318 -48.0424 15.5842 -22.9676 
[...]
POINT_DATA 2272
FIELD FieldData 2
Thickness 1 2272 double
0.56648781538 0.57944574577 0.58250746957 0.54263197103 0.40763986209 0.25014552117 0.074701828472 0.15570351901 0.39526203453 
0.67042725976 0.97550021321 1.2841816333 1.6418608604 2.0446856827 2.4920206992 2.9326915826 3.4143332938 3.9000819151 
4.3982379653 4.8914165522 5.3870066552 5.8638672557 6.3429530783 6.7982392264 7.256792604 7.6964190043 8.1377259893 
8.5625329615 8.9858027472 9.4013404083 9.8031237088 10.035665615 10.113420895 10.141417358 10.134289691 10.091660569 
10.028992794 9.947108872 9.8464406085 9.7361698534 9.6194689941 9.4993185285 9.3779368988 9.2573529412 9.1391854345 
9.0234239382 8.9049377053 8.7838015309 8.6619164006 8.5341096634 8.3920927914 8.2271528866 8.0125533378 7.7555188141 
7.4791796713 7.1956858114 6.9239137892 6.6611990088 6.4190522381 6.2015265139 6.0102019763 5.8458431813 5.7077343405 
5.5947846432 5.5059076668 5.4400143492 5.3960263515 5.3728531334 5.3655605708 5.3758504466 5.4032953786 5.4467923452 
5.5052395496 5.5775341314 5.6615104561 5.7497316388 5.8479768381 5.9551723952 6.0685770198 6.1796917243 6.296400402 
6.4157509876 6.5278921079 6.6429884165 6.7499421751 6.8539300055 6.9493652266 7.0378551152 7.1146039707 7.1836351552 
7.2360097791 7.282037866 7.3062381129 7.3237457735 7.321965232 7.3169265043 7.2957605896 7.2711269661 7.2452583535 
7.2100672952 7.171739606 7.1341748704 7.0978545232 7.0632634128 7.0226211413 6.984861066 6.9507122748 6.9206522614 
6.89515605 6.8747022472 6.8597642278 6.8458420906 6.8372540391 6.8357305091 6.8415535483 6.8549611302 6.8761967054 
6.9055113594 6.9381791165 6.9776562008 7.0262442106 7.0839339002 7.1494354254 7.2193332746 7.2886402926 7.3609030775 
7.4344349632 7.5075366154 7.570820745 7.629886839 7.6832880615 7.723829739 7.7516432467 7.7684592104 7.7658986734 
7.7466394387 7.7116141615 7.6516928335 7.5713606399 7.4704865762 7.3424960332 7.1894756107 7.0232218356 6.8542105973 
6.6912797582 6.5422453296 6.4223313749 6.3420817388 6.3120377917 6.3392442063 6.4166689207 6.5337614388 6.6799592296 
6.8415210236 7.0077988269 7.1708164666 7.3199683188 7.4442838039 7.5379339098 7.6096501731 7.6541756942 7.6743786098 
7.6716255892 7.6448053649 7.5974907287 7.5292934847 7.4442864608 7.3421662796 7.2334768357 7.1179341597 6.9995555572 
6.8851821533 6.77765026 6.6796716487 6.5938324515 6.5225518215 6.4680774253 6.4319291813 6.4133401402 6.4109895388 
6.4235529507 6.4497529869 6.4883305109 6.538086676 6.5978401763 6.6664579051 6.7428468053 6.8259447066 6.9147450556 
7.0082513387 7.1054334192 7.204990966 7.2995773726 7.3929265254 7.4844663186 7.5729993041 7.6573445009 7.7308365819 
7.7955834969 7.8544950263 7.9072936145 7.9440780506 7.9739142016 7.9955320149 8.0001616036 7.9971243669 7.9772210443 
7.9460038146 7.8971842848 7.8357934766 7.7550082338 7.6635249809 7.5540985394 7.4340740677 7.301500811 7.1579569474 
7.0064107999 6.8463391567 6.6800898049 6.5121006898 6.3351859519 6.1588273818 5.9836297907 5.8097634715 5.6345190741 
5.4640837676 5.2993450901 5.1411351973 4.9902561009 4.8474278457 4.7133209405 4.5885392242 4.4736169641 4.3690359483 
4.275224477 4.1925912052 4.1215235347 4.0617839361 4.0106075815 3.9647006034 3.9208494993 3.8758842256 3.8266851534 
3.7701437883 3.7032048403 3.6231579624 3.5284542731 3.4179753929 3.2908811209 3.147562802 2.9922331789 2.8301594623 
2.6344249382 2.4350817693 2.2391321803 2.0522035268 1.8547646853 1.645636753 1.4541619523 1.2845441958 1.1383697254 
0.96036142154 0.79513154851 0.64875615252 0.52360249662 0.4249025317 0.36168032916 0.34027699653 0.23411167374 0.13864288938 
0.067764352501 0.089889747653 0.16822491464 0.2545913451 0.33992683703 0.29292917138 0.24539876165 0.21185566251 0.19016538993 
0.17584188407 0.16376531521 0.14953715513 0.13019049761 0.10471852169 0.07670047811 0.066283877425 0.100818379 0.15847313373 
0.21759430636 0.26918133366 0.31447238758 0.35470905313 0.32282540647 0.27996904277 0.22964174505 0.18069144089 0.15466558021 
0.17975193456 0.24883935743 0.27380261417 0.31551821954 0.36988364626 0.4156127875 0.43899843874 0.4301681799 0.38360433211 
0.30523277913 0.20418710021 0.090831000311 0.048680524403 0.16519164106 0.28262453696 0.38914279969 0.48122242253 0.48532908199 
0.45921615684 8.1679299723 8.3471883791 8.5408336085 8.7467272736 8.9619570337 9.1821617248 9.4082537165 9.6380673577 
9.8694510615 10.100238027 10.328273161 10.549308822 10.75972399 10.959714486 11.148521587 11.319777623 11.477366524 
11.616370136 11.737861448 11.835749839 11.908705802 11.952217565 11.959204292 11.870608516 11.796281775 11.691313493 
11.561352162 11.41262435 11.249695958 11.075395288 10.895442814 10.712927074 10.525480035 10.339514634 10.156420911 
9.9775721906 9.8043412984 9.6380794952 9.4801229551 9.3317827434 9.1943382675 9.0688635377 8.9557058378 8.8550478247 
8.7670796029 8.692006896 8.6297538038 8.5766851697 8.534068729 8.5013166442 8.4768940013 8.4592057833 8.442771326 
8.4266330353 8.4099181293 8.3847546061 8.3414882908 8.2719702189 8.1812524755 8.0736140645 7.9620510974 7.841306527 
7.7239154873 7.6116356879 7.5062402698 7.4045773867 7.311061307 7.2257774236 7.148727211 7.079914933 7.0193471538 
6.9620273103 6.9109643941 6.8679042737 6.8328858859 6.8059343581 6.7796623239 6.7607184854 6.749437206 6.7455277979 
6.7415626658 6.7425034704 6.7497883667 6.7614183559 6.7707871795 6.7854962768 6.8052779877 6.820167733 6.8386693986 
6.8612879209 6.8774537718 6.8963353783 6.9173900323 6.9309454742 6.9470904575 6.9621056159 6.9710061146 6.9816909532 
6.9887398417 6.9906988104 6.9937353712 6.9932596539 6.9867198718 6.9809637521 6.9760842211 6.9655718725 6.9537059715 
6.9432924846 6.9344291058 6.9272147815 6.918086844 6.9072961762 6.8986073283 6.8920966566 6.8878453711 6.8859404861 
6.886454752 6.889114732 6.8885901854 6.89057015 6.8950540661 6.9020332892 6.9115018263 6.9234645407 6.9379046536 
6.9548340745 6.9720579588 6.9878592948 7.0060988717 7.0267793835 7.0499052319 7.0754860815 7.1035153007 7.1340087464 
7.1621340969 7.1904319894 7.2211353472 7.2542455049 7.2897849664 7.3277576891 7.360504833 7.3948287035 7.4315388019 
7.4706613337 7.5054184457 7.5395442036 7.5762116972 7.6108834586 7.6421560946 7.6762820377 7.7056941419 7.7347057362 
7.7642070134 7.7884765224 7.8161808332 7.8357202005 7.8585518725 7.8744358987 7.892134878 7.9032696752 7.9156590074 
7.9215384767 7.9285128535 7.9292642345 7.930815212 7.9271776269 7.9233945893 7.916813069 7.90791688 7.9005241622 
7.8868904475 7.8757572148 7.8637561802 7.8483955319 7.8354100791 7.8242033092 7.807780216 7.79367023 7.7817950152 
7.7720387129 7.7589205659 7.746290266 7.7354592482 7.7262743927 7.7185871643 7.7102266626 7.6987130445 7.6881272179 
7.6782945432 7.6690284085 7.6601416468 7.6493472224 7.6336338915 7.617528277 7.6011092519 7.5845257651 7.5679327225 
7.5464369434 7.5223945791 7.4987295923 7.4756448413 7.4533494688 7.4312777977 7.4040056377 7.3788080107 7.3561367607 
7.3364477296 7.3202077904 7.3078739786 7.296110539 7.2867941484 7.282942674 7.2850271683 7.2934246383 7.3080581749 
7.3287172044 7.3501808042 7.3755121385 7.4060547506 7.4415629337 7.4817607598 7.5186408552 7.5581281099 7.6013172717 
7.641214687 7.6809645218 7.7227057072 7.7578384743 7.7963243448 7.8269493637 7.8600660228 7.8848541803 7.9114946737 
7.9292101269 7.94779909 7.9589667352 7.9696808147 7.9742724403 7.9781862188 7.9763428517 7.9753938806 7.9674621913 
7.9620459244 7.9509029785 7.9399002568 7.9309339119 7.9151231798 7.9017510125 7.8907802384 7.8760698198 7.8614186686 
7.849206311 7.8393892914 7.8295982755 7.8177624051 7.8084644817 7.801697226 7.7974011989 7.7953782775 7.7953802784 
7.7932823092 7.7911104188 7.7901354782 7.7900841997 7.7906842266 7.791654484 7.7927120363 7.7904508257 7.7839893104 
7.7765104822 7.767997236 7.7584983783 7.747899684 7.7277158619 7.7063409888 7.6838309254 7.6602419149 7.6249437696 
7.5886811732 7.5520208353 7.5092774252 7.4628958048 7.4178193 7.3741233469 7.3235604369 7.276175988 7.2325390603 
7.1925795508 7.1497912947 7.1128120443 7.0822435499 7.0586984488 7.0416306276 7.0275747 7.0227945347 7.0279410224 
7.0436644425 7.070634919 7.1095530593 7.1605968094 7.2217064327 7.2972665923 7.3879932641 7.4946076222 7.617832224 
7.758012161 7.9140215238 8.0843325538 8.1004625981 8.0390666933 7.9873206168 7.944844327 7.9112567924 7.8816679278 
7.8593698935 7.8445623146 7.8368449452 7.8358163424 7.839400474 7.843879255 7.8535159171 7.8679086584 7.8866471941 
7.9038443591 7.921778203 7.9425177878 7.9656752301 7.984242511 8.0023118672 8.0224602208 8.0445286721 8.0655407608 
8.0831129495 8.1019792278 8.121899821 8.1426384095 8.1631814419 8.1772939343 8.191452621 8.2054281733 8.2189972417 
8.2301720625 8.2336269713 8.2358533877 8.2366525001 8.231966124 8.2189953037 8.2038356156 8.1809423677 8.1505985296 
8.1188015978 8.0751352578 8.0309717259 7.9809956191 7.9270981046 7.87390037 7.8132482807 7.7550609782 7.6970945776 
7.6366094571 7.5802550618 7.5282492473 7.4742771029 7.4261194259 7.3842268387 7.3489886793 7.3157605839 7.2877958786 
7.2666513235 7.2523878387 7.2437642112 7.2369003136 7.2370167539 7.244172146 7.2584215707 7.2746696831 7.2951549799 
7.3215762955 7.3534326348 7.3813727266 7.4137000366 7.4500647222 7.4799857127 7.5123069617 7.5467489347 7.5734778951 
7.6025514814 7.6337328196 7.659323858 7.6836503615 7.7093131911 7.7360836439 7.7546793793 7.772923266 7.7915462455 
7.8103414552 7.8224997738 7.8311230227 7.8392561744 7.8467123009 7.8522966713 7.8481169646 7.8426870752 7.8359002288 
7.8278208837 7.8178606652 7.7990044466 7.77941382 7.7592146026 7.7385095719 7.717426946 7.6959127269 7.6667592968 
7.6376421138 7.6086615447 7.5799292396 7.5515510518 7.5236321825 7.4884707171 7.4535209371 7.4192541917 7.3857403844 
7.350840283 7.3089321372 7.2679015193 7.2281177044 7.1827469154 7.1362973582 7.092375124 7.0467189326 6.9990855099 
6.9553997091 6.9141601245 6.8703389383 6.8319658657 6.7994635863 6.7679195775 6.7404007419 6.7203179019 6.7080903733 
6.7012737128 6.6994279912 6.7069343573 6.7237412731 6.7496651546 6.7791465468 6.8148089806 6.8587952549 6.9102883226 
6.961021005 7.0192825076 7.0835091916 7.1456109181 7.2144704347 7.2829536124 7.3528907168 7.4252175561 7.4941720313 
7.5668505766 7.6318796338 7.7005823687 7.7608312041 7.8227160833 7.8809855779 7.9351786751 7.9915383904 8.0382224061 
8.0852205669 8.1313526421 8.1677849543 8.2048500429 8.2379900747 8.262522186 8.286768566 8.3046144992 8.3142830392 
8.3227740591 8.3225977682 8.3151884937 8.3070319639 8.2915464955 8.270309294 8.249688598 8.2258329278 8.1954641885 
8.1671682334 8.1412536896 8.1066777795 8.0757313605 8.0489007765 8.0192448284 7.9908184766 7.968187108 7.9471028089 
7.9263581911 7.9131694377 7.902505158 7.8952562373 7.8972535658 7.9008850663 7.9108308724 7.9300315468 7.9493846204 
7.9773083468 8.0136818335 8.0508910296 8.0973643098 8.1516300453 8.2078791708 8.2732462776 8.3468418784 8.4223208595 
8.5067331768 8.5999419743 8.6951373826 8.7972323761 8.9063310944 9.0136744563 9.1269529264 9.2385910783 9.3520809699 
9.4617703523 9.5718879097 9.6736536401 9.7729150853 9.8655450511 9.9489885654 10.026310524 10.09365118 10.150326515 
10.201324298 10.239262472 10.274704184 10.297919503 10.319451939 10.332585449 10.341563712 10.349697279 10.34930426 
10.347576668 10.345887404 10.340463496 10.331629166 10.323753551 10.317101142 10.308801835 10.298377572 10.290145303 
10.284388343 10.281379531 10.277395488 10.274606436 10.275582831 10.280542428 10.28942585 10.300427736 10.310923617 
10.324934402 10.342299317 10.362843948 10.384868756 10.404794215 10.427258867 10.452067651 10.477103636 10.498308807 
10.521061791 10.543009188 10.559589449 10.577212704 10.588107162 10.597389643 10.600241851 10.59922425 10.590280329 
10.577215376 10.553472137 10.525207289 10.485960059 10.439598557 10.38473906 10.319283197 10.248350209 10.16493705 
10.077754441 9.9802319462 9.879768458 9.7699113775 9.658873616 9.5398779842 9.4197280846 9.299350058 9.1745394699 
9.0524438176 8.933900398 8.8163043295 8.7018229028 8.5936987005 8.492797162 8.3999790862 8.3161145492 8.2385586765 
8.1704025285 8.0989282224 6.7407644742 6.7688587369 6.7627305242 6.7836773411 6.8180771453 6.8526521864 6.8878412666 
6.9171860323 6.9504281215 6.9816416924 7.0088748204 7.0392871504 7.0662851886 7.088820427 7.1137087461 7.1305742028 
7.1447153419 7.1556594915 7.1561470908 7.1522885948 7.1357086877 7.1079112159 7.0732349965 7.0244202907 6.9754036761 
6.914674327 6.8557155032 6.7939810884 6.729928592 6.6705771855 6.615274585 6.5574490228 6.5061460484 6.4617425577 
6.4246213035 6.395165096 6.373758769 6.3597192147 6.3529480151 6.3556708538 6.3673850535 6.3874534292 6.4152455902 
6.4501166562 6.4914332502 6.538546131 6.590819354 6.6476086792 6.7082602851 6.7721296877 6.8385697925 6.904922978 
6.969610697 7.0346549836 7.0993919785 7.1631674011 7.2253262916 7.279498874 7.3304627607 7.3796906755 7.4272592407 
7.4657181265 7.5033793593 7.5406310776 7.5685087244 7.5962819346 7.6213402915 7.6399340072 7.6595374053 7.6707949345 
7.6820567369 7.688787261 7.6920793916 7.6944702129 7.6894995089 7.6860356409 7.6724293918 7.6585560901 7.641073065 
7.6167302708 7.5932486658 7.5679262392 7.5356537708 7.5045187164 7.474580805 7.4425139893 7.4057244606 7.3704618173 
7.3368033495 7.3048410863 7.2706590322 7.2340263011 7.1994718252 7.1670868739 7.1369925189 7.1092846976 7.0801309073 
7.0501649312 7.0230307406 6.9988608336 6.977775981 6.9599206526 6.945420234 6.9283588142 6.9140433504 6.9035756048 
6.8971017157 6.8947722011 6.8967572102 6.8988634801 6.9019606359 6.909032427 6.9198465876 6.9341534571 6.9447881164 
6.9556962727 6.9689886874 6.9799689013 6.9863232833 6.9954740466 7.0039014932 7.010874943 7.0228897353 7.0405336734 
7.0584862161 7.0821669209 7.1138371073 7.1539262792 7.2021369947 7.2509392518 7.3059353034 7.367177577 7.4293616396 
7.4913348744 7.5572799887 7.6154608574 7.6757928212 7.7270258048 7.7778828176 7.8213214003 7.861229383 7.8962217151 
7.9243913387 7.9503966237 7.966729983 7.983298667 7.9883333191 7.9949945942 7.9900994043 7.9866701415 7.9750982016 
7.9625947025 7.9499924017 7.9299876873 7.9122966954 7.8961478528 7.872892303 7.8524084689 7.834826829 7.8166884297 
7.7958896637 7.7785195688 7.7647167861 7.7546294416 7.7402989167 7.729805555 7.7236182447 7.7219038235 7.7248171443 
7.7263096601 7.7315826575 7.7421481509 7.758171717 7.779842866 7.8055943605 7.8320987433 7.8649263923 7.9042599814 
7.9503060849 8.0032655653 8.0566954726 8.1168123497 8.1840052576 8.2579894951 8.3341296293 8.4125817284 8.4968688659 
8.5843289233 8.6698256364 8.7602712212 8.8477545075 8.9368946657 9.0229317957 9.1091511613 9.188996343 9.2676191079 
9.340827575 9.4071606352 9.4686719583 9.5244397561 9.5720403807 9.6114429593 9.6443623765 9.6710718215 9.6913284403 
9.7026947302 9.7099211923 9.7137151957 9.7094859553 9.7053483978 9.6950372731 9.6864168929 9.6721271292 9.6610362749 
9.6479969456 9.6350182836 9.625686366 9.6192191278 9.6106213612 9.6057195246 9.6042932829 9.6061195466 9.6109658217 
9.6180207862 9.6239643896 9.6322458294 9.642543589 9.6545136842 9.6678034328 9.6820415797 9.696844442 9.7118216348 
9.7222242294 9.7309677949 9.7382702589 9.7436535466 9.7466483899 9.744251819 9.7329847956 9.7174141247 9.6975029602 
9.6680694481 9.6311063614 9.5900460068 9.5449716956 9.487603882 9.4264710995 9.3616853358 9.2911433417 9.2113368579 
9.1282869961 9.0421205141 8.9500318027 8.850398603 8.7486805374 8.6456080798 8.5393728631 8.4282134422 8.3178654594 
8.2088977302 8.0986647794 7.9858073854 7.8757873535 7.7691521163 7.6590354721 7.5521286451 7.4501815572 7.3495705787 
7.2505182495 7.1580612167 7.0723616658 6.9863563014 6.908649443 6.8398028732 6.7774929241 6.7202002919 6.6735332258 
6.6379416721 6.6100943284 6.5877265937 6.5758018891 6.5721641415 6.5703412686 6.5783037678 6.5893137297 6.6046408459 
6.6264568262 6.6473441059 7.4036011728 7.3969929403 7.3690885867 7.3182780219 7.3006003267 7.2768318292 7.2434714413 
7.2124033047 7.1740808034 7.1416583397 7.1006016693 7.0657510419 7.0303439284 6.9932827881 6.9623246537 6.9307631206 
6.8982132755 6.8718288702 6.8490580363 6.8217818719 6.800914016 6.7866884408 6.7707910261 6.7601746261 6.7592515887 
6.7689633237 6.7837037995 6.8083645208 6.8474351475 6.9013750746 6.968126945 7.0428226898 7.1205667827 7.2034021284 
7.2885199616 7.3731152784 7.4543697005 7.5268075598 7.5894178377 7.6454647194 7.6946894522 7.7363196012 7.7635867451 
7.7832679781 7.795089313 7.7947172181 7.7821796345 7.7610075429 7.7291032914 7.6820827888 7.6256512659 7.5595082045 
7.4771823963 7.3844337518 7.2862127148 7.1872484001 7.0865833944 6.9938666791 6.914153577 6.851895874 6.8093871985 
6.7867544182 6.7851001763 6.7994405262 6.8238961629 6.847074834 6.8710623165 6.8909251659 6.90084691 6.8905570727 
6.8678095942 6.8340800697 6.7908657502 6.7387404391 6.674525461 6.6052581359 6.5323312292 6.4571323073 6.3810644726 
6.305513659 6.2318531105 6.1614725735 6.0917824339 6.0271136338 5.9695875966 5.9204598887 5.8809761601 5.8523542767 
5.8358163739 5.8321438381 5.8404827245 5.85421123 5.8736999284 5.9010531874 5.9352315433 5.975497351 6.0211653757 
6.0647769005 6.1096839049 6.1582961927 6.2100544529 6.2644060486 6.3208098661 6.371035358 6.4218291016 6.473809658 
6.5268882805 6.5810284163 6.6357102157 6.6837872545 6.7327391742 6.7824469515 6.8329774312 6.8794190133 6.9231112933 
6.9681667249 7.0147053988 7.0551807723 7.0961718658 7.1391740377 7.1805409865 7.2191482391 7.2602633253 7.3035340603 
7.3415394368 7.3825018847 7.4264942413 7.4690821601 7.5115915983 7.5575325646 7.6068863164 7.651131421 7.6970398439 
7.744214541 7.7823952347 7.8206783715 7.8506812556 7.8756388338 7.8913768996 7.9006695431 7.8988398979 7.8913705178 
7.8708199112 7.8461688649 7.8089419317 7.7691614647 7.7258314049 7.6762627234 7.6286447944 7.5836740834 7.5348042343 
7.4883693114 7.446829107 7.4108450154 7.3810775172 7.3521024095 7.3288530487 7.313468118 7.305674655 7.3050611733 
7.3111945547 7.3161046744 7.3262395134 7.3419072331 7.3628457587 7.3888033606 7.4182231618 7.4456406637 7.4776407436 
7.5140601992 7.5547490151 7.5995556544 7.6477077576 7.6939470342 7.7444047404 7.7990028957 7.8576612995 7.9202868211 
7.9868007261 8.052508093 8.1202142061 8.1913597971 8.2657157912 8.3425553546 8.4148498997 8.4895836104 8.5665064388 
8.6378716389 8.7093622888 8.7790123449 8.8435556272 8.9070673855 8.9646184877 9.0191479015 9.0699760955 9.1136325598 
9.1543279482 9.1898909988 9.2180677847 9.2426227425 9.2638424226 9.2769764889 9.2874881933 9.2968405191 9.2989080364 
9.301642179 9.3011512501 9.2990535556 9.2950693713 9.2904790105 9.2825891024 9.2778902697 9.2694273443 9.2615648839 
9.2566309192 9.252179092 9.2446927535 9.2398339595 9.2374652731 9.2374572106 9.2334260472 9.2306316067 9.229835003 
9.2309028135 9.2337012041 9.2340170093 9.2331509588 9.2336085936 9.235267234 9.237992735 9.24136365 9.2389441945 
9.2371596724 9.235885222 9.235004326 9.2343859383 9.227283927 9.2192376224 9.2110202929 9.2025159209 9.1894555325 
9.171491852 9.152511104 9.132110879 9.1008597798 9.0664940926 9.0296096861 8.9802911373 8.9285254471 8.8733960364 
8.807312118 8.7389331158 8.6681392828 8.5864408806 8.5026143911 8.4166570396 8.324548282 8.2269806349 8.1290867002 
8.0324815054 7.9377265974 7.8424956092 7.7537191058 7.6730324053 7.6019109121 7.5411807909 7.4884585377 7.4432260684 
7.4098044851 7.3888802798 7.3731742783 7.3687329666 7.3734433376 7.3843572281 7.3991849044 7.4160859494 6.332242628 
6.3703998304 6.4085262226 6.4529165133 6.5049973481 6.5602342457 6.6147633217 6.6750621142 6.7405453947 6.7989281839 
6.8608539308 6.9259929212 6.9817641156 7.0382264462 7.0929410021 7.1368417812 7.180596365 7.210779412 7.2367018073 
7.2497198399 7.2558099891 7.2523306218 7.2398230598 7.2227593489 7.1929228276 7.1621937783 7.1187104015 7.0721801267 
7.0199637668 6.9586331651 6.8972654781 6.8231335417 6.7481218579 6.6669035972 6.5805859386 6.4965132551 6.4077222882 