# vtk DataFile Version 4.2
vtk output
ASCII
DATASET POLYDATA
POINTS 2584 float
-31.3885 12.0343 40.0632 -31.711 11.8249 40.1782 -32.0366 11.5971 40.2739 
-32.3654 11.3519 40.3521 -32.6978 11.0908 40.4146 -33.0341 10.8147 40.463 
-33.3744 10.5249 40.4993 -33.7191 10.2225 40.5252 -34.0685 9.90884 40.5424 
-34.4228 9.58497 40.5527 -34.7823 9.2521 40.558 -35.1473 8.91141 40.5599 
-35.518 8.56407 40.5602 -35.8947 8.21128 40.5608 -36.2777 7.8542 40.5633 
-36.6672 7.49402 40.5696 -37.0636 7.13192 40.5815 -37.4671 6.76907 40.6006 
-37.8779 6.40666 40.6289 -38.2964 6.04586 40.668 -38.7228 5.68785 40.7197 
-39.1574 5.33382 40.7858 -39.6004 4.98494 40.8681 -40.0522 4.64239 40.9684 
-40.5129 4.30736 41.0883 -40.9827 3.9807 41.2291 -41.4603 3.66205 41.3889 
-41.9444 3.35073 41.5652 -42.4336 3.04605 41.7556 -42.9264 2.74733 41.9577 
-43.4215 2.45389 42.1689 -43.9175 2.16505 42.3868 -44.4129 1.88013 42.609 
-44.9064 1.59844 42.8328 -45.3966 1.3193 43.056 -45.882 1.04203 43.276 
-46.3613 0.765949 43.4903 -46.8331 0.490373 43.6965 -47.2959 0.21462 43.8922 
-47.7483 -0.0619925 44.0748 -48.189 -0.340145 44.2418 -48.6166 -0.620521 44.3909 
-49.0297 -0.903802 44.5195 -49.4267 -1.19067 44.6252 -49.8065 -1.48181 44.7055 
-50.168 -1.77778 44.7587 -50.5126 -2.07868 44.7863 -50.8422 -2.38448 44.7903 
-51.1586 -2.69516 44.7729 -51.4636 -3.01069 44.7364 -51.7591 -3.33106 44.6829 
-52.0469 -3.65624 44.6146 -52.329 -3.9862 44.5336 -52.607 -4.32092 44.4421 
-52.8829 -4.66037 44.3423 -53.1586 -5.00454 44.2364 -53.4358 -5.35339 44.1265 
-53.7158 -5.70684 44.0141 -53.9972 -6.06452 43.8981 -54.2779 -6.42596 43.7766 
-54.5558 -6.79074 43.6478 -54.8289 -7.15841 43.5099 -55.0951 -7.52853 43.361 
-55.3525 -7.90065 43.1992 -55.5988 -8.27433 43.0228 -55.8326 -8.64917 42.8304 
-56.054 -9.02497 42.6224 -56.2637 -9.40159 42.3999 -56.4622 -9.77886 42.1636 
-56.6504 -10.1566 41.9147 -56.8288 -10.5348 41.654 -56.9981 -10.9131 41.3825 
-57.1589 -11.2915 41.1011 -57.3119 -11.6698 40.8107 -57.4577 -12.0478 40.5124 
-57.597 -12.4254 40.2071 -57.7305 -12.8025 39.8956 -57.8587 -13.1788 39.579 
-57.9824 -13.5543 39.2582 -58.1022 -13.9287 38.9341 -58.2188 -14.302 38.6077 
-58.3328 -14.674 38.2799 -58.4448 -15.0445 37.9517 -58.5555 -15.4133 37.624 
-58.6656 -15.7804 37.2978 -58.7755 -16.1455 36.9738 -58.8848 -16.5086 36.6517 
-58.9929 -16.8692 36.3311 -59.0992 -17.2273 36.0115 -59.203 -17.5827 35.6925 
-59.3038 -17.9352 35.3736 -59.401 -18.2844 35.0544 -59.4938 -18.6303 34.7344 
-59.5819 -18.9727 34.4131 -59.6644 -19.3113 34.0902 -59.7408 -19.6459 33.765 
-59.8106 -19.9764 33.4373 -59.873 -20.3025 33.1065 -59.9275 -20.624 32.7721 
-59.9734 -20.9408 32.4338 -60.0102 -21.2525 32.091 -60.0372 -21.5591 31.7432 
-60.0539 -21.8603 31.3902 -60.0596 -22.1559 31.0313 -60.0536 -22.4457 30.6661 
-60.0355 -22.7295 30.2942 -60.0046 -23.0071 29.9151 -59.9602 -23.2783 29.5284 
-59.9018 -23.5429 29.1335 -59.829 -23.8007 28.7303 -59.7421 -24.0517 28.3192 
-59.6417 -24.2959 27.9008 -59.5284 -24.5333 27.476 -59.4028 -24.7639 27.0453 
-59.2655 -24.9877 26.6093 -59.1171 -25.2048 26.1689 -58.9582 -25.4151 25.7246 
-58.7893 -25.6186 25.2772 -58.6111 -25.8154 24.8273 -58.4241 -26.0054 24.3755 
-58.2289 -26.1886 23.9227 -58.0261 -26.3651 23.4693 -57.8163 -26.5349 23.0162 
-57.6001 -26.698 22.5639 -57.3781 -26.8543 22.1132 -57.1508 -27.0039 21.6648 
-56.9189 -27.1468 21.2192 -56.6829 -27.2829 20.7772 -56.4434 -27.4124 20.3395 
-56.201 -27.5352 19.9066 -55.9556 -27.6512 19.4786 -55.7073 -27.7605 19.0555 
-55.4559 -27.8631 18.6373 -55.2016 -27.959 18.2239 -54.9441 -28.048 17.8153 
-54.6836 -28.1303 17.4116 -54.42 -28.2058 17.0126 -54.1532 -28.2745 16.6183 
-53.8832 -28.3363 16.2288 -53.6099 -28.3913 15.844 -53.3334 -28.4395 15.4638 
-53.0536 -28.4808 15.0884 -52.7705 -28.5152 14.7175 -52.4839 -28.5427 14.3513 
-52.194 -28.5633 13.9897 -51.9007 -28.577 13.6326 -51.6038 -28.5838 13.2801 
-51.3035 -28.5836 12.9322 -50.9996 -28.5764 12.5887 -50.6921 -28.5623 12.2497 
-50.3811 -28.5412 11.9152 -50.0663 -28.513 11.5851 -49.7479 -28.4779 11.2594 
-49.4258 -28.4357 10.9381 -49.1 -28.3864 10.6212 -48.7703 -28.3301 10.3086 
-48.4369 -28.2668 10.0003 -48.0996 -28.1963 9.69639 -47.7584 -28.1187 9.39671 
-47.4132 -28.034 9.10129 -47.0642 -27.9422 8.8101 -46.7111 -27.8433 8.52312 
-46.354 -27.7371 8.24033 -45.9929 -27.6238 7.96171 -45.6276 -27.5033 7.68723 
-45.2583 -27.3756 7.41687 -44.8848 -27.2407 7.1506 -44.507 -27.0986 6.88841 
-44.1251 -26.9492 6.63028 -43.7389 -26.7926 6.3762 -43.3488 -26.6289 6.12631 
-42.9549 -26.4581 5.88074 -42.5575 -26.2805 5.63966 -42.1569 -26.0961 5.4032 
-41.7534 -25.9051 5.17154 -41.3472 -25.7075 4.9448 -40.9386 -25.5037 4.72315 
-40.5278 -25.2935 4.50673 -40.1152 -25.0772 4.2957 -39.7009 -24.855 4.0902 
-39.2853 -24.6268 3.89039 -38.8685 -24.393 3.69642 -38.451 -24.1535 3.50843 
-38.0329 -23.9085 3.32659 -37.6145 -23.6581 3.15103 -37.196 -23.4025 2.98191 
-36.7778 -23.1418 2.81938 -36.3601 -22.8761 2.66358 -35.9431 -22.6055 2.51468 
-35.5271 -22.3302 2.37283 -35.1125 -22.0503 2.23816 -34.6994 -21.7659 2.11083 
-34.2881 -21.4771 1.991 -33.8788 -21.1841 1.87881 -33.472 -20.887 1.77442 
-33.0677 -20.5859 1.67797 -32.6663 -20.281 1.58962 -32.268 -19.9723 1.50951 
-31.8732 -19.6601 1.43779 -31.482 -19.3443 1.37463 -31.0947 -19.0252 1.32016 
-30.7116 -18.7029 1.27454 -30.333 -18.3775 1.23792 -29.9591 -18.0491 1.21045 
-29.5902 -17.7179 1.19228 -29.2266 -17.3839 1.18355 -28.8684 -17.0474 1.18443 
-28.516 -16.7084 1.19506 -28.1697 -16.367 1.21559 -27.8297 -16.0234 1.24618 
-27.4963 -15.6778 1.28697 -27.1697 -15.3301 1.33811 -26.8502 -14.9807 1.39975 
-26.538 -14.6295 1.47201 -26.2331 -14.2767 1.55479 -25.9357 -13.9224 1.64798 
-25.6456 -13.5667 1.75146 -25.3628 -13.2096 1.86509 -25.0874 -12.8513 1.98875 
-24.8193 -12.4919 2.12233 -24.5586 -12.1315 2.26569 -24.3052 -11.7701 2.41871 
-24.0591 -11.4079 2.58127 -23.8204 -11.045 2.75324 -23.589 -10.6814 2.9345 
-23.3649 -10.3172 3.12492 -23.1482 -9.95267 3.32439 -22.9388 -9.58774 3.53277 
-22.7366 -9.22256 3.74994 -22.5418 -8.85723 3.97578 -22.3543 -8.49184 4.21016 
-22.1741 -8.12648 4.45297 -22.0012 -7.76127 4.70406 -21.8356 -7.39628 4.96326 
-21.6768 -7.03158 5.23009 -21.5245 -6.66722 5.50402 -21.3783 -6.30326 5.78451 
-21.2377 -5.93975 6.07102 -21.1025 -5.57674 6.36301 -20.9721 -5.21429 6.65996 
-20.8461 -4.85246 6.96131 -20.7242 -4.49129 7.26653 -20.606 -4.13084 7.5751 
-20.4909 -3.77116 7.88646 -20.3788 -3.41232 8.20008 -20.269 -3.05435 8.51542 
-20.1613 -2.69733 8.83196 -20.0552 -2.34129 9.14914 -19.9503 -1.9863 9.46643 
-19.8462 -1.6324 9.78331 -19.7425 -1.27966 10.0992 -19.6388 -0.928131 10.4136 
-19.5347 -0.577858 10.726 -19.4299 -0.228885 11.036 -19.3246 0.118811 11.3438 
-19.2193 0.465269 11.6501 -19.1143 0.810528 11.9552 -19.0099 1.15462 12.2596 
-18.9065 1.4976 12.5638 -18.8046 1.83948 12.8683 -18.7044 2.18033 13.1736 
-18.6063 2.52016 13.4801 -18.5107 2.85902 13.7882 -18.418 3.19695 14.0986 
-18.3286 3.53398 14.4116 -18.2427 3.87016 14.7277 -18.1609 4.20553 15.0474 
-18.0833 4.54011 15.3712 -18.0105 4.87396 15.6996 -17.9428 5.2071 16.0329 
-17.8805 5.53957 16.3718 -17.824 5.87142 16.7166 -17.7737 6.20269 17.0679 
-17.73 6.5334 17.4261 -17.6932 6.86361 17.7917 -17.6637 7.19334 18.1652 
-17.6418 7.52263 18.547 -17.628 7.85135 18.9374 -17.6227 8.17858 19.3358 
-17.6263 8.50327 19.7414 -17.6392 8.82433 20.1534 -17.6619 9.14067 20.5708 
-17.6948 9.45123 20.993 -17.7384 9.75493 21.419 -17.7931 10.0507 21.848 
-17.8593 10.3374 22.2793 -17.9375 10.614 22.712 -18.0281 10.8795 23.1453 
-18.1316 11.1327 23.5783 -18.2483 11.3725 24.0102 -18.3788 11.598 24.4402 
-18.5234 11.8079 24.8675 -18.6827 12.0013 25.2912 -18.857 12.1771 25.7106 
-19.0467 12.3341 26.1247 -19.2524 12.4713 26.5328 -19.4745 12.5876 26.9341 
-19.713 12.6824 27.3279 -19.967 12.757 27.7147 -20.2352 12.8132 28.095 
-20.5162 12.8525 28.4695 -20.8088 12.8769 28.8388 -21.1115 12.888 29.2035 
-21.4231 12.8875 29.5642 -21.7423 12.8773 29.9216 -22.0677 12.859 30.2762 
-22.398 12.8343 30.6287 -22.7319 12.8051 30.9797 -23.0681 12.773 31.3298 
-23.4053 12.7398 31.6797 -23.7421 12.7072 32.0299 -24.0772 12.677 32.3811 
-24.4094 12.6508 32.7339 -24.7372 12.6305 33.0888 -25.0594 12.6178 33.4466 
-25.3746 12.6144 33.8079 -25.6816 12.622 34.1732 -25.9793 12.6417 34.5428 
-26.2685 12.6719 34.9154 -26.5501 12.7103 35.2893 -26.8252 12.7545 35.6629 
-27.0949 12.8022 36.0346 -27.36 12.8512 36.4025 -27.6217 12.8991 36.7652 
-27.881 12.9436 37.1208 -28.1388 12.9824 37.4678 -28.3963 13.0132 37.8044 
-28.6545 13.0337 38.1291 -28.9143 13.0416 38.44 -29.1768 13.0346 38.7357 
-29.4431 13.0103 39.0143 -29.7141 12.9664 39.2743 -29.9908 12.9007 39.5139 
-30.2744 12.8108 39.7315 -30.5658 12.6944 39.9254 -30.866 12.5492 40.094 
-43.1669 12.6099 34.7509 -43.5287 12.5294 35.0709 -43.8923 12.4478 35.3916 
-44.2577 12.3646 35.7123 -44.6249 12.2792 36.0324 -44.9939 12.1911 36.3514 
-45.3649 12.0997 36.6685 -45.7379 12.0045 36.9832 -46.1128 11.905 37.2948 
-46.4897 11.8006 37.6028 -46.8687 11.6907 37.9063 -47.2497 11.575 38.205 
-47.6329 11.4527 38.498 -48.0182 11.3234 38.7849 -48.4057 11.1864 39.0649 
-48.7955 11.0414 39.3375 -49.1875 10.8877 39.6019 -49.5818 10.7248 39.8577 
-49.9784 10.5522 40.1041 -50.3775 10.3693 40.3406 -50.7789 10.1756 40.5665 
-51.1826 9.97063 40.7812 -51.5883 9.75482 40.9847 -51.9955 9.52859 41.1771 
-52.4036 9.29241 41.3582 -52.8121 9.04678 41.5281 -53.2205 8.79215 41.6868 
-53.6283 8.529 41.8343 -54.0351 8.2578 41.9706 -54.4403 7.97904 42.0957 
-54.8435 7.69318 42.2097 -55.244 7.40069 42.3124 -55.6414 7.10206 42.404 
-56.0353 6.79775 42.4844 -56.4251 6.48824 42.5536 -56.8103 6.174 42.6117 
-57.1904 5.8555 42.6586 -57.5649 5.53323 42.6943 -57.9333 5.20765 42.7189 
-58.2951 4.87924 42.7323 -58.6497 4.54847 42.7346 -58.997 4.21574 42.7257 
-59.3368 3.88116 42.7061 -59.6695 3.54477 42.6759 -59.9954 3.2066 42.6356 
-60.3146 2.86669 42.5854 -60.6274 2.52507 42.5257 -60.934 2.18177 42.4568 
-61.2348 1.83684 42.379 -61.5299 1.49031 42.2926 -61.8195 1.14221 42.198 
[...]
POINT_DATA 2584
FIELD FieldData 2
Thickness 1 2584 double
1.072211681 1.3030180998 1.5547962739 1.835458883 2.1398021734 2.4484170379 2.7735662791 3.115533573 3.4703723865 
3.831015357 4.1953716553 4.5654174744 4.9379078609 5.309811495 5.6782520621 6.011375743 6.3532192341 6.6992543999 
7.0336533062 7.3548906706 7.6575686381 7.9440361079 8.2128925476 8.4627908588 8.6924489404 8.9013038727 9.0876883619 
9.2573755099 9.4141541999 9.5608829046 9.7003691863 9.8349718416 9.9592119409 10.077045941 10.18035228 10.261906773 
10.28857676 10.224952486 10.11304418 9.9754488342 9.82373966 9.6658921442 9.509315497 9.3606191277 9.2219287366 
9.0975317337 8.9885902891 8.8864519445 8.7944985599 8.7104974707 8.6381455615 8.5744970411 8.518713962 8.4714868947 
8.4313978819 8.3970503718 8.3670456114 8.3396150544 8.3159403568 8.3021406303 8.3022577908 8.3203238569 8.3599165999 
8.4156943203 8.4991348122 8.6102885988 8.7460899235 8.9012620278 9.0738044356 9.2623983015 9.4623659281 9.6662513514 
9.8672080107 9.9713696634 9.9827076001 9.9652170465 9.9308890459 9.8867849836 9.8360161439 9.780791434 9.7204873253 
9.6589846442 9.5961283369 9.5317528359 9.4657145489 9.3979014919 9.3275131811 9.2541175718 9.1788631045 9.1018769506 
9.0233081198 8.9433063269 8.8620258974 8.7763304019 8.6876031627 8.5977274992 8.5068728147 8.4108762848 8.3122243967 
8.2140052919 8.1174881129 8.0239041791 7.9338458393 7.8475997167 7.7681075018 7.6963183424 7.6331351622 7.5793905102 
7.5358934037 7.5031437617 7.4805125524 7.467127475 7.4621444592 7.4647773881 7.4742395432 7.4838750284 7.497948466 
7.5161458137 7.5372470634 7.5526857969 7.569906131 7.58391748 7.5920229082 7.5957525597 7.5905940072 7.5756380933 
7.5514357988 7.5127442646 7.4625717751 7.4080844863 7.3445048934 7.2817719215 7.2210558779 7.1582695387 7.1005955319 
7.0488688 7.0039272188 6.9666115061 6.9377625128 6.9182304391 6.9088647535 6.9105244732 6.9240671385 6.9503617301 
6.9902812914 7.0392971076 7.1010513208 7.1779870014 7.270999485 7.3778337857 7.492768536 7.6181831261 7.709547267 
7.6253680821 7.5502790347 7.4857691847 7.4312732281 7.386234719 7.3500984796 7.3223056407 7.3023060769 7.2895535444 
7.283503412 7.2836094681 7.2848810575 7.2905765325 7.3004998947 7.3145365977 7.3299678043 7.3453190749 7.3641123527 
7.3861951724 7.4057652722 7.4266383507 7.4501991381 7.4737120894 7.4948869911 7.5183168108 7.5438203532 7.5654911761 
7.5862600638 7.607655327 7.6290826147 7.6433672591 7.6573148542 7.670680149 7.6832566074 7.6948944185 7.7024620911 
7.7094191092 7.7167748405 7.7247597136 7.7335786605 7.7433996337 7.7543487771 7.7665055808 7.779893672 7.7944826177 
7.8101853198 7.8268541667 7.844283341 7.8622120344 7.8803218058 7.8982452188 7.9155679083 7.9318339848 7.9445681401 
7.9484368008 7.9483866021 7.93166647 7.9012866054 7.8576849179 7.8022138614 7.736420346 7.6687595188 7.5954182233 
7.5260879667 7.4582991942 7.3945206472 7.3386856918 7.2915550039 7.2528410441 7.2205141086 7.1912642562 7.1682210632 
7.1508545034 7.1324691116 7.1163142637 7.1001103512 7.0804577903 7.0598199832 7.0354125976 7.0115879597 6.9830847895 
6.9569081992 6.9248795402 6.8930380523 6.8610366073 6.8225011643 6.7840982945 6.7453603322 6.7004100048 6.652823947 
6.6037375556 6.5527039965 6.4992771981 6.4386039275 6.3746850736 6.307155685 6.2352788848 6.1583309459 6.0756037584 
5.9864101685 5.8902571862 5.7873623799 5.6781250072 5.5629503801 5.4422518437 5.3164421207 5.1859408334 5.0511655176 
4.9125357683 4.7704685294 4.6253795847 4.4776800737 4.3277770875 4.1760716577 4.02295762 3.8688204918 3.7140378326 
3.5589769267 3.403993978 3.2494337342 3.0956309554 2.9370170956 2.7754906908 2.6141486297 2.452774776 2.2912786586 
2.1296174916 1.9677317314 1.8055477404 1.6429926003 1.4800057667 1.3165631772 1.15274105 0.98881326006 0.82549271262 
0.66508998666 0.51491448438 0.38983731969 0.27576899196 0.18675095477 0.19933553774 0.28399134194 0.38132507937 0.46940271058 
0.54034313158 0.59210309468 0.6242719873 0.63683695999 0.63032671565 0.6067758077 0.56865482494 0.51852608182 0.45910936947 
0.39338797712 0.32488643712 0.25831031795 0.20098728657 0.16481757201 0.16161705389 0.18700347722 0.22425953783 0.26054158476 
0.28850442036 0.3035237386 0.30305765681 0.28862431474 0.26289972813 0.22871211595 0.18901265503 0.14696883398 0.10630694689 
0.072477114734 0.055068736453 0.060527799315 0.077915663965 0.098170601602 0.12207000192 0.1561987282 0.208934699 0.16376390474 
0.15471718584 0.26458274426 0.44287528219 11.620031485 11.588761966 11.544767698 11.493201076 11.416276821 11.326758455 
11.228027281 11.119526631 11.004697241 10.884078864 10.761064819 10.633015103 10.50589769 10.378757799 10.250639664 
10.126164573 10.006186895 9.888947194 9.7756619744 9.6693816841 9.5709093809 9.4808768488 9.3950834832 9.3166160464 
9.2459029284 9.1827195184 9.1268529498 9.073540388 9.0265769762 8.9862585083 8.9524177209 8.9248319924 8.8982070393 
8.8775652366 8.8627806455 8.853729256 8.8485811825 8.8453369611 8.8475601013 8.8551863185 8.8681561881 8.8814249917 
8.8991894186 8.9214851137 8.9478903092 8.972366745 8.9997583756 9.0299299581 9.0583279822 9.0866182822 9.1165429211 
9.1424296521 9.1676981939 9.1918316659 9.2104146887 9.2285755081 9.2393035112 9.2478862683 9.2492345219 9.2462139321 
9.2353991481 9.2189675946 9.1946999566 9.1657935899 9.1298628054 9.0906808149 9.0454511367 8.9982887678 8.9464291566 
8.8936221938 8.8380569702 8.781947787 8.72573615 8.6686371695 8.6149174785 8.5590565515 8.5086256029 8.4583953264 
8.412302786 8.3715092267 8.3316166552 8.2995180457 8.2695090965 8.2434976899 8.2243529464 8.2033219377 8.1882877285 
8.1777108139 8.16556787 8.1589035422 8.1546934895 8.1491993247 8.1485028108 8.1485534156 8.1474522329 8.1505389266 
8.1527169362 8.1539747298 8.1588984306 8.1610886444 8.1629420599 8.1679768199 8.1681943431 8.1690845403 8.1727536146 
8.1691796968 8.1678054618 8.166812619 8.1598878398 8.1551624583 8.1477564782 8.1368991679 8.1279742728 8.1130384413 
8.0975964871 8.0827144058 8.0606620824 8.0402643684 8.0166372786 7.9896477553 7.964243716 7.932064531 7.900663054 
7.869465689 7.8332082248 7.7990726652 7.7648421849 7.7272085464 7.6919619014 7.6583154036 7.6207964895 7.5859146909 
7.5536775243 7.5200283144 7.4867518685 7.4563124586 7.428709548 7.3993024072 7.3715524666 7.3467486257 7.3248868094 
7.3026083219 7.2810656031 7.262472145 7.2468105016 7.2329777437 7.2176353473 7.2051323521 7.1954313711 7.1884990618 
7.1798120657 7.1725891904 7.1679409687 7.1658281544 7.1624959791 7.1591477627 7.1580788341 7.1592506272 7.1574499537 
7.1561373484 7.1567857495 7.1571758933 7.1544482475 7.1538746911 7.1538915554 7.1499736882 7.1486615625 7.1475324238 
7.1434954507 7.1426141585 7.1422795729 7.1399010614 7.1413330033 7.1465160065 7.1483340369 7.1547355601 7.16597251 
7.1822977028 7.1975909449 7.2183745196 7.2452622625 7.2784460291 7.3177035837 7.3627264492 7.4119069249 7.4636425985 
7.5201738399 7.5810391508 7.6457760386 7.7139154857 7.7849899575 7.858523643 7.9340353744 8.0110368801 8.0890339151 
8.1659346906 8.2393876044 8.3119456135 8.383058321 8.452170077 8.5180459312 8.5728865536 8.6238729524 8.6660329351 
8.6965365013 8.7104692412 8.7032827934 8.6700697931 8.6128303479 8.5385894404 8.4532339086 8.3585148697 8.262708784 
8.1675755783 8.0788371801 7.9925159539 7.9150611957 7.8464124988 7.7815721991 7.7230228217 7.672754484 7.62255305 
7.5794713195 7.5366116826 7.496884807 7.4574099863 7.4202912555 7.3874469253 7.3539873261 7.3264258383 7.3033239853 
7.2805873699 7.2638203521 7.2529975157 7.2461469284 7.2413731331 7.2426085175 7.2498359621 7.2630329159 7.28203641 
7.3024643527 7.3289238717 7.3614117377 7.3998633146 7.4439904368 7.4934454091 7.5471733325 7.6012027396 7.6593479637 
7.7212753876 7.786654143 7.8551540759 7.9227914813 7.990269831 8.0597511341 8.1309256696 8.2022879556 8.2687683159 
8.3359096868 8.4034249737 8.4675393396 8.5270598263 8.5860419712 8.6428115584 8.6915775459 8.7390203396 8.7840953009 
8.821004211 8.8573001047 8.8932328569 8.9262513098 8.9562231281 8.9869926808 9.0188163965 9.0519621739 9.0838813676 
9.1160338908 9.1505898353 9.187811281 9.2279558108 9.2712854636 9.3165186046 9.3630300796 9.4129023711 9.4659855535 
9.5221132351 9.5811187971 9.640033448 9.7002637354 9.7630436247 9.8282657529 9.894196483 9.9595224771 10.027016951 
10.096572516 10.165306257 10.234208938 10.304941186 10.377116236 10.446836861 10.51818494 10.591059696 10.663451245 
10.735071097 10.808046282 10.882279434 10.955588611 11.028516757 11.102473897 11.176988137 11.248586152 11.317691827 
11.385353446 11.445157336 11.501971072 11.548513558 11.587768925 11.617302584 11.632726595 11.634821856 8.7259797757 
8.6932459553 8.6606655291 8.6244962592 8.5854515362 8.5471605777 8.5058350491 8.4624546438 8.4205696599 8.3781843059 
8.3330667519 8.2903425538 8.2503407432 8.2086834196 8.1685628751 8.1322800643 8.1002145044 8.0700876086 8.0422025494 
8.0204554779 8.005563181 7.9982267023 7.9991637427 8.0090744228 8.0266168185 8.0532973559 8.089713269 8.1350329842 
8.1884178511 8.2490145918 8.3159539361 8.3883531002 8.4653230657 8.5450460765 8.6242109895 8.7049822907 8.7864424384 
8.8676756245 8.9470788234 9.0186631738 9.086995219 9.1511182035 9.2021603699 9.2471877068 9.2788293685 9.3007279765 
9.3077338027 9.3055264813 9.2891942538 9.2625014511 9.2269497162 9.1781196896 9.1218193919 9.0584058483 8.9851006169 
8.9080214092 8.8244772421 8.7379079934 8.6484628168 8.5579899385 8.4663142258 8.3781222676 8.2880150801 8.203259758 
8.1241689354 8.0461625512 7.9741566868 7.9072558385 7.8445726478 7.7811704523 7.7202039525 7.6610936526 7.6029785158 
7.5450084388 7.4863443197 7.4261605871 7.3636364697 7.2984610349 7.2323799527 7.1676298928 7.1063590319 7.0503973726 
7.0014906233 6.9613423916 6.9312100502 6.9118913157 6.9034888213 6.9052630546 6.9164711538 6.9363702682 6.9642399855 
6.999352778 7.0409948777 7.0884538202 7.1390474254 7.1901108362 7.2445073471 7.3015750069 7.3606661955 7.4162654662 
7.4694988597 7.5225566308 7.5748390594 7.6182142359 7.6584106302 7.6966606581 7.7331063361 7.7621679266 7.7891714176 
7.8152085614 7.8403976592 7.8648580571 7.8886824344 7.9109517684 7.929665362 7.9482288375 7.9667111096 7.9851737654 
8.0036681671 8.0222411255 8.0409486913 8.0598234758 8.0776609128 8.0927560221 8.1080154946 8.1234681071 8.1391454564 
8.1551126239 8.1682169603 8.1788609235 8.1898543316 8.2012675441 8.2067817817 8.2122124647 8.2174660921 8.2165980866 
8.2165210311 8.2116885682 8.2055229067 8.1961085824 8.1841426573 8.169659296 8.1523804939 8.1331832655 8.1112565797 
8.0884423756 8.0626922757 8.0382086684 8.0097212818 7.9838182308 7.9562942247 7.929246926 7.9052784029 7.8801964217 
7.8567934878 7.8369788014 7.8205891099 7.803148965 7.7898047678 7.7806823569 7.7759201705 7.7754132174 7.7756488799 
7.78074423 7.7907694922 7.8055191128 7.8246977318 7.8480015575 7.8715982736 7.8969640899 7.9252652047 7.9562057854 
7.9894919689 8.0195077456 8.0498935077 8.0814803781 8.1139799712 8.14065497 8.1663166385 8.1918000007 8.2134445729 
8.2291796306 8.2437044136 8.2544167156 8.2565750961 8.2565754868 8.2518386607 8.237819221 8.2217086193 8.2037620429 
8.178600929 8.1508628871 8.1228175684 8.0948990334 8.0673055354 8.0351081373 8.0046073448 7.976248947 7.9504790958 
7.9277449612 7.9085002947 7.8909190966 7.8756463166 7.8653616299 7.8605069851 7.8615277465 7.8688607087 7.8829523765 
7.9035391496 7.9278154095 7.9595039845 7.9984182823 8.044369021 8.0970728942 8.150542349 8.21037897 8.2763989513 
8.3441462472 8.4148344157 8.4908784183 8.5645601457 8.6434134235 8.7192157296 8.7979469079 8.8734356682 8.9480897961 
9.0217523591 9.0906755266 9.1560489873 9.2181234334 9.27640165 9.329727359 9.3770373408 9.4202683568 9.4597677852 
9.4954305967 9.5247700003 9.5519711952 9.5768139872 9.5963459775 9.6166607714 9.6313577743 9.6482361772 9.6598259436 
9.6742666508 9.6856272436 9.6978376033 9.7130979552 9.7251519872 9.7393506015 9.756627182 9.7745747774 9.7910541824 
9.8103198368 9.8322563758 9.855987646 9.8768740292 9.9001374975 9.9256673159 9.9533556397 9.9817155831 10.007732722 
10.035617346 10.065258962 10.096557333 10.129402363 10.158841345 10.188869266 10.21985353 10.251577497 10.283997035 
10.31132493 10.338490059 10.366202678 10.394474247 10.415990829 10.437657423 10.459768768 10.474598999 10.488812609 
10.498735358 10.503799122 10.502963831 10.497007749 10.479891715 10.454342967 10.421724308 10.383493453 10.340403403 
10.292756562 10.244819821 10.196161003 10.146424928 10.099311836 10.05221207 10.007993741 9.9682187451 9.9282560709 
9.8931480518 9.8627023771 9.8367200643 9.8120767165 9.7918165746 9.7757387111 9.7630637478 9.7528816928 9.7442863066 
9.7344793094 9.7221846443 9.7085894724 9.693633313 9.6732114645 9.6500423548 9.6247603701 9.5921974728 9.5581582956 
9.5152199518 9.4694199517 9.4148369761 9.2925414723 9.1205172083 8.9768631421 8.8636112016 8.7826524988 8.7261478552 
8.6722350775 8.6170325941 8.5624047596 7.9769361141 7.9051468286 7.8314321816 7.7557433261 7.6814854303 7.6088777169 
7.5381568271 7.4695523463 7.402962655 7.3350859033 7.2702352137 7.2086865726 7.1507375217 7.0966783973 7.0468156816 
7.0014591738 6.9609278512 6.9255491436 6.8956582163 6.8715952851 6.8537092233 6.8422415731 6.8369338303 6.8357353454 
6.8398492516 6.8488749601 6.8623333221 6.8797389582 6.9005885667 6.9243796528 6.9505938301 6.978708013 7.0081993724 
7.0385336563 7.0691836358 7.0976643512 7.1216216088 7.1440729004 7.1646721068 7.1830846417 7.1938218202 7.1998120593 
7.2032127174 7.2030098402 7.194558269 7.1844806623 7.1730970515 7.1533463961 7.1327890778 7.1119849525 7.0852272968 
7.0576936896 7.031032151 7.0019947718 6.9713590023 6.9427506465 6.9164981851 6.8879247862 6.8614684517 6.8382082561 
6.8181321187 6.7958468336 6.7756584731 6.7588617122 6.7437637585 6.7271516475 6.714373565 6.7056268001 6.6936136666 
6.6857574823 6.6823854609 6.6770480819 6.675141863 6.6781918209 6.6806145951 6.6858794019 6.6966525044 6.7091227186 
6.7233065647 6.7437938611 6.7705332078 6.7958117969 6.827422208 6.8649904287 6.9028037486 6.9417950601 6.9854572936 
7.0312638258 7.0732750534 7.1187483689 7.1673560099 7.2084887031 7.2518017352 7.2971601395 7.3350073205 7.3725897645 
7.4112146763 7.4418883529 7.4706508153 7.4998642695 7.5230577899 7.5431385638 7.5640199082 7.585014679 7.5982303631 
7.6125802557 7.6281226536 7.6430424278 7.6523954931 7.6632931767 7.6757932596 7.6875022763 7.6949426059 7.7043306244 
7.715749871 7.7237959404 7.7308924015 7.7403600746 7.7479424357 7.7535463102 7.7620495846 7.7667867571 7.7723540138 
7.7785653229 7.7809993707 7.7862406504 7.7858785144 7.7875361765 7.7852957074 7.783038964 7.7780103388 7.7715040572 
7.7632577338 7.7521809522 7.7409020199 7.7252642322 7.7112734707 7.6932378802 7.6752513586 7.6587515502 7.6382379737 
7.6183987359 7.6003084702 7.5836087126 7.5649123617 7.5490686728 7.5363840224 7.5271543184 7.5216827238 7.5172566736 
7.5164198106 7.5203108791 7.5292128837 7.543335208 7.5626222981 7.586942577 7.613440471 7.6421136372 7.6747568918 
7.7110479272 7.75067201 7.7871920758 7.8248716092 7.8645536407 7.9029037378 7.9367294437 7.9713477665 8.002216968 
8.0274592941 8.052393969 8.0676671179 8.0801490963 8.0863973423 8.0845228755 8.079519965 8.0623904329 8.0437866655 
8.0195339217 7.9892696521 7.9588113535 7.9272149046 7.88898625 7.851800818 7.8159810577 7.7811594279 7.7418078661 
7.7049770611 7.6709898762 7.64016359 7.6091867485 7.5788398423 7.5526632985 7.5309627693 7.5123900968 7.4932962469 
7.4797106581 7.4720290095 7.4662095573 7.4635508232 7.4671118543 7.4746579169 7.4829206421 7.4972269725 7.5159972139 
7.534724203 7.5593321933 7.5880150103 7.6168824269 7.6514910069 7.6895386998 7.7283649843 7.7728103828 7.8203659647 
7.8690992661 7.9233563517 7.9808270317 8.0387726042 8.101433704 8.1645196669 8.2282729095 8.2953611455 8.3583954849 
8.4244517652 8.4871275029 8.5500798366 8.6103372499 8.6686088617 8.7245287469 8.7766826828 8.8269313055 8.871696047 
8.9156112511 8.9519418131 8.9879947248 9.0168387351 9.0432051932 9.0660116024 9.0819613098 9.0970332659 9.106031672 
9.1122232236 9.118614328 9.1179573221 9.117505184 9.1176093762 9.1114794192 9.1071297046 9.1031858339 9.0946297288 
9.0885837538 9.0817230604 9.0706662587 9.061141217 9.0491725048 9.0338161648 9.0200839475 9.0066872947 8.9878833209 
8.9707154829 8.955125285 8.9363730351 8.9155722698 8.8961887157 8.8781755688 8.8537248613 8.8299899632 8.8074841015 
8.7818504544 8.7529989504 8.7252563263 8.6945436581 8.6598827793 8.6266177071 8.5892001524 8.5506026637 8.5142121171 
8.4739518444 8.4349135938 8.3990992999 8.3630213712 8.3280642504 8.2974971085 8.2715729359 8.2483950184 8.2280186673 
8.213502536 8.2051158997 8.2031297784 8.2078221863 8.2194783851 8.237639798 8.2601733698 8.2886124228 8.3224717849 
8.3612626533 8.4044941816 8.4459262623 8.4901846091 8.5349806268 8.5761698861 8.6147573911 8.6484585424 8.6721163234 
8.684372768 8.6814200187 8.6421191205 8.5454275346 8.4850445292 8.4506093453 8.4047403108 8.3509695178 8.2908279439 
8.2248472425 8.1558452622 8.0863121722 8.010732088 7.2280575113 7.2122364284 7.190450926 7.1680690336 7.1399729467 
7.1136312027 7.0845168991 7.0532272505 7.0235868435 6.9954971073 6.9640745804 6.9324157613 6.9022236108 6.873396046 
6.8458423812 6.8194724911 6.7914323883 6.7629499397 6.7356129586 6.7093524662 6.684122042 6.6599813364 6.6370162231 
6.6153102043 6.5949353039 6.5759819014 6.5585179755 6.5426168394 6.5283493864 6.5157821313 6.5049815228 6.4960094038 
6.4889166505 6.4837645788 6.4806015291 6.479471418 6.4804199393 6.483488357 6.488711645 6.4961195833 6.5057402962 
6.5176027562 6.5317396466 6.5481517607 6.5668274823 6.5876489081 6.610497771 6.6338895926 6.6579677712 6.6834191478 
6.7101500474 6.7380565347 6.7670334383 6.7969974815 6.8278527868 6.8569835765 6.8841264148 6.9117183759 6.9396789031 
6.9667246776 6.9887861985 7.010864913 7.0329184038 7.0485605821 7.0630897721 7.0772292594 7.0834262379 7.0891399527 
7.0915709415 7.0882115508 7.0841642665 7.0734925144 7.0598735631 7.0449712452 7.0216384333 6.9973131839 6.9707027914 
6.9365932557 6.9013582826 6.8649523771 6.820966473 6.7750226281 6.7285684355 6.6822234807 6.6298261564 6.5782862199 
6.5284634783 6.4809459484 6.4318167196 6.3833731079 6.338839348 6.298795098 6.2638198092 6.2269686738 6.196157198 
6.1719681472 6.1549927951 6.1431920133 6.1338531159 6.1331385214 6.1416285765 6.1596505494 6.1772287465 6.2018392384 
6.2331673348 6.270405935 6.3038909587 6.3417593798 6.3844092361 6.431417085 6.47997902 6.5262842774 6.5761345002 
6.6291944894 6.6851054128 6.7435399503 6.8025570819 6.8595306127 6.9186883918 6.9798009469 7.0426515351 7.1071303623 
7.173375787 7.2415994539 7.3120062005 7.3847784466 7.459960413 7.5370413988 7.6116108263 7.6855521819 7.7584077308 
7.8293621738 7.8900580311 7.9430769456 7.9770161334 7.9872654886 7.9766762272 7.9495913523 7.9082740599 7.8575482351 
7.8030006147 7.7421452118 7.6804911375 7.6199829089 7.5567155738 7.4943238467 7.4343425936 7.3770251975 7.3226176053 
7.2713687957 7.2234063507 7.1773285482 7.1350078381 7.0962100516 7.060701356 7.0282562685 6.9986605018 6.9718680669 
6.9485249796 6.929448385 6.9154610264 6.9072947748 6.9020287478 6.9031625263 6.9105297611 6.9239558021 6.9374842895 
6.9520094749 6.9654029705 6.9750752624 6.9741779457 6.9627400031 6.9363629238 6.8947590938 6.8449939164 6.790472583 
6.7389469967 6.6960290905 6.6532886508 6.6202711558 6.5980756107 6.5872694926 6.5838130758 6.5873355826 6.601212047 
6.6249457661 6.6510298143 6.6817163572 6.7203311406 6.7585681854 6.7990890818 6.8447245931 6.8839470696 6.9278923868 
6.9661078543 7.0047174104 7.0382761358 7.0692513648 7.0952493369 7.1178193836 7.1358306129 7.15076917 7.1627014116 
7.171327647 7.1794173171 7.1830614065 7.1895886296 7.1896097683 7.192834944 7.1946559565 7.1959022282 7.2007585169 
7.202423572 7.2069500491 7.2154907786 7.221345054 7.2311140234 7.245296092 7.2592677951 7.2760718724 7.2976569935 
7.3230932073 7.3484461025 7.3788898351 7.4144718288 7.4534264654 7.4937920715 7.5395069825 7.5906070533 7.6453901097 