# vtk DataFile Version 4.2
vtk output
ASCII
DATASET POLYDATA
POINTS 2216 float
-50.7582 -10.4024 -46.5325 -51.1117 -10.6499 -46.3709 -51.4616 -10.909 -46.2265 
-51.8085 -11.1785 -46.0973 -52.153 -11.4575 -45.9813 -52.4957 -11.7448 -45.8768 
-52.8371 -12.0394 -45.7818 -53.1779 -12.3402 -45.6944 -53.5187 -12.6462 -45.6128 
-53.86 -12.9564 -45.535 -54.2024 -13.2696 -45.4592 -54.5466 -13.5848 -45.3835 
-54.8932 -13.901 -45.3059 -55.2426 -14.217 -45.2246 -55.5956 -14.5319 -45.1377 
-55.9527 -14.8445 -45.0434 -56.3145 -15.1539 -44.9396 -56.6816 -15.4589 -44.8246 
-57.0546 -15.7585 -44.6965 -57.434 -16.0517 -44.5533 -57.8206 -16.3373 -44.3931 
-58.2145 -16.6147 -44.2148 -58.6153 -16.8843 -44.0195 -59.0219 -17.1468 -43.8094 
-59.4335 -17.4031 -43.5863 -59.8492 -17.6539 -43.3521 -60.2681 -17.9001 -43.1089 
-60.6893 -18.1423 -42.8585 -61.112 -18.3813 -42.603 -61.5351 -18.618 -42.3442 
-61.9579 -18.8532 -42.0841 -62.3793 -19.0875 -41.8248 -62.7987 -19.3217 -41.568 
-63.2149 -19.5568 -41.3158 -63.6272 -19.7933 -41.0701 -64.0347 -20.0321 -40.8329 
-64.4364 -20.274 -40.6061 -64.8315 -20.5198 -40.3917 -65.219 -20.7702 -40.1916 
-65.5981 -21.026 -40.0078 -65.9679 -21.2879 -39.8422 -66.328 -21.5567 -39.6959 
-66.6803 -21.8326 -39.5671 -67.0272 -22.1158 -39.4528 -67.371 -22.4063 -39.3504 
-67.7142 -22.7044 -39.2571 -68.0591 -23.0101 -39.17 -68.4081 -23.3236 -39.0864 
-68.7637 -23.645 -39.0036 -69.1282 -23.9746 -38.9187 -69.5041 -24.3123 -38.8289 
-69.8936 -24.6585 -38.7316 -70.2992 -25.0131 -38.6238 -70.722 -25.3762 -38.5044 
-71.1574 -25.7468 -38.3776 -71.5997 -26.1239 -38.2495 -72.043 -26.5062 -38.126 
-72.4816 -26.8926 -38.0128 -72.9095 -27.2821 -37.916 -73.3211 -27.6736 -37.8414 
-73.7104 -28.0658 -37.7949 -74.0729 -28.4579 -37.7812 -74.4091 -28.8497 -37.7994 
-74.7205 -29.2413 -37.8477 -75.0089 -29.6326 -37.924 -75.2758 -30.0236 -38.0263 
-75.5231 -30.4146 -38.1526 -75.7522 -30.8053 -38.3009 -75.9649 -31.1959 -38.4693 
-76.1628 -31.5865 -38.6557 -76.3476 -31.9769 -38.858 -76.5209 -32.3674 -39.0744 
-76.6844 -32.7578 -39.3027 -76.8398 -33.1482 -39.5411 -76.9888 -33.5387 -39.7875 
-77.1328 -33.9292 -40.0398 -77.2738 -34.3199 -40.2962 -77.4128 -34.7106 -40.555 
-77.5495 -35.1011 -40.8163 -77.6834 -35.4912 -41.0808 -77.8135 -35.8806 -41.3489 
-77.9391 -36.2688 -41.6214 -78.0597 -36.6558 -41.8986 -78.1743 -37.041 -42.1813 
-78.2824 -37.4243 -42.4699 -78.383 -37.8054 -42.7651 -78.4757 -38.1839 -43.0674 
-78.5595 -38.5596 -43.3773 -78.6338 -38.9322 -43.6955 -78.6978 -39.3013 -44.0225 
-78.7508 -39.6667 -44.3588 -78.7922 -40.0281 -44.7052 -78.821 -40.3852 -45.062 
-78.8367 -40.7376 -45.4299 -78.8385 -41.0851 -45.8094 -78.8257 -41.4274 -46.2012 
-78.7975 -41.7642 -46.6058 -78.7535 -42.0952 -47.0234 -78.6943 -42.4204 -47.4532 
-78.6208 -42.7397 -47.8941 -78.5338 -43.0531 -48.3449 -78.4344 -43.3604 -48.8044 
-78.3234 -43.6617 -49.2715 -78.2016 -43.9569 -49.7451 -78.0701 -44.246 -50.224 
-77.9296 -44.5289 -50.707 -77.7811 -44.8056 -51.193 -77.6255 -45.0761 -51.6809 
-77.4637 -45.3402 -52.1694 -77.2965 -45.5979 -52.6575 -77.1249 -45.8492 -53.144 
-76.9497 -46.0941 -53.6278 -76.772 -46.3325 -54.1076 -76.5922 -46.5642 -54.5825 
-76.4104 -46.7888 -55.0522 -76.226 -47.0056 -55.5164 -76.0388 -47.214 -55.9748 
-75.8484 -47.4135 -56.4274 -75.6544 -47.6034 -56.8739 -75.4564 -47.7831 -57.3141 
-75.2541 -47.952 -57.7477 -75.0471 -48.1095 -58.1746 -74.835 -48.2551 -58.5945 
-74.6174 -48.388 -59.0072 -74.3941 -48.5077 -59.4126 -74.1646 -48.6138 -59.8105 
-73.929 -48.7065 -60.2012 -73.6874 -48.7862 -60.585 -73.4398 -48.8533 -60.9623 
-73.1864 -48.9083 -61.3334 -72.9271 -48.9515 -61.6988 -72.6621 -48.9835 -62.0588 
-72.3915 -49.0045 -62.4137 -72.1153 -49.0151 -62.7639 -71.8337 -49.0156 -63.1098 
-71.5465 -49.0063 -63.4517 -71.2541 -48.9878 -63.7899 -70.9563 -48.9603 -64.1248 
-70.6532 -48.9242 -64.4568 -70.345 -48.88 -64.7861 -70.0317 -48.8281 -65.1132 
-69.7134 -48.7688 -65.4383 -69.39 -48.7024 -65.7619 -69.0618 -48.6295 -66.0842 
-68.7287 -48.5503 -66.4057 -68.3908 -48.4654 -66.7266 -68.0482 -48.3749 -67.0473 
-67.701 -48.2794 -67.3682 -67.3491 -48.1793 -67.6895 -66.9928 -48.0747 -68.0116 
-66.6321 -47.9654 -68.3337 -66.2671 -47.8509 -68.6554 -65.898 -47.7307 -68.9759 
-65.525 -47.6043 -69.2944 -65.1482 -47.4713 -69.6104 -64.7677 -47.3313 -69.923 
-64.3836 -47.1837 -70.2318 -63.9962 -47.0281 -70.5359 -63.6055 -46.864 -70.8346 
-63.2117 -46.691 -71.1274 -62.8149 -46.5085 -71.4134 -62.4153 -46.3162 -71.692 
-62.0131 -46.1135 -71.9626 -61.6083 -45.9 -72.2244 -61.201 -45.6753 -72.4768 
-60.7915 -45.4387 -72.7191 -60.3799 -45.19 -72.9505 -59.9664 -44.9286 -73.1704 
-59.5509 -44.6541 -73.3782 -59.1339 -44.3661 -73.5732 -58.7159 -44.0654 -73.7553 
-58.2976 -43.7526 -73.9246 -57.8797 -43.4287 -74.0812 -57.4629 -43.0945 -74.225 
-57.0479 -42.7506 -74.3561 -56.6355 -42.3981 -74.4745 -56.2262 -42.0376 -74.5802 
-55.8209 -41.67 -74.6734 -55.4203 -41.2961 -74.7539 -55.0249 -40.9167 -74.8219 
-54.6356 -40.5327 -74.8773 -54.253 -40.1447 -74.9203 -53.8778 -39.7538 -74.9508 
-53.5108 -39.3606 -74.9688 -53.1526 -38.9659 -74.9744 -52.804 -38.5707 -74.9677 
-52.4656 -38.1756 -74.9486 -52.1382 -37.7816 -74.9172 -51.8224 -37.3894 -74.8736 
-51.5188 -36.9997 -74.8177 -51.227 -36.6125 -74.7501 -50.9466 -36.2276 -74.671 
-50.6772 -35.8449 -74.581 -50.4182 -35.4643 -74.4805 -50.1691 -35.0857 -74.3699 
-49.9295 -34.7088 -74.2497 -49.6989 -34.3335 -74.1202 -49.4768 -33.9598 -73.982 
-49.2627 -33.5874 -73.8354 -49.0562 -33.2163 -73.6809 -48.8568 -32.8462 -73.5189 
-48.6639 -32.4771 -73.3498 -48.4772 -32.1088 -73.1741 -48.2961 -31.7411 -72.9923 
-48.1201 -31.3739 -72.8046 -47.9489 -31.0071 -72.6117 -47.7818 -30.6405 -72.4139 
-47.6184 -30.274 -72.2116 -47.4582 -29.9074 -72.0052 -47.3008 -29.5407 -71.7953 
-47.1457 -29.1736 -71.5823 -46.9924 -28.806 -71.3665 -46.8404 -28.4378 -71.1484 
-46.6892 -28.0689 -70.9285 -46.5383 -27.699 -70.7071 -46.3874 -27.3281 -70.4847 
-46.2358 -26.9559 -70.2618 -46.0831 -26.5825 -70.0387 -45.9289 -26.2076 -69.816 
-45.7726 -25.831 -69.594 -45.6137 -25.4527 -69.3732 -45.4519 -25.0725 -69.1539 
-45.2866 -24.6903 -68.9367 -45.1173 -24.3059 -68.722 -44.9435 -23.9191 -68.5102 
-44.765 -23.53 -68.3015 -44.5822 -23.1387 -68.0959 -44.3955 -22.7456 -67.8929 
-44.2056 -22.351 -67.6923 -44.0131 -21.9553 -67.4936 -43.8185 -21.5587 -67.2966 
-43.6223 -21.1616 -67.1008 -43.4252 -20.7643 -66.906 -43.2277 -20.3671 -66.7119 
-43.0305 -19.9704 -66.518 -42.8339 -19.5745 -66.324 -42.6387 -19.1797 -66.1297 
-42.4453 -18.7863 -65.9346 -42.2543 -18.3947 -65.7387 -42.0658 -18.0051 -65.5417 
-41.8805 -17.6178 -65.3436 -41.6985 -17.2332 -65.1441 -41.5204 -16.8515 -64.9432 
-41.3465 -16.473 -64.7406 -41.1772 -16.098 -64.5363 -41.013 -15.7269 -64.33 
-40.8547 -15.36 -64.121 -40.7032 -14.9976 -63.9087 -40.5595 -14.6402 -63.6923 
-40.4245 -14.2882 -63.4711 -40.2991 -13.9419 -63.2444 -40.1843 -13.6017 -63.0114 
-40.081 -13.2679 -62.7714 -39.9901 -12.9411 -62.5238 -39.9126 -12.6215 -62.2677 
-39.8494 -12.3095 -62.0025 -39.8015 -12.0056 -61.7274 -39.7697 -11.71 -61.4417 
-39.7549 -11.4232 -61.1447 -39.7582 -11.1456 -60.8357 -39.7805 -10.8775 -60.5139 
-39.8224 -10.6193 -60.1789 -39.8837 -10.3715 -59.8315 -39.9638 -10.1343 -59.4727 
-40.0623 -9.90811 -59.1035 -40.1786 -9.69336 -58.725 -40.3122 -9.49039 -58.3383 
-40.4626 -9.29959 -57.9443 -40.6292 -9.12132 -57.5441 -40.8117 -8.95595 -57.1387 
-41.0094 -8.80386 -56.7292 -41.2218 -8.66542 -56.3167 -41.4485 -8.54101 -55.9021 
-41.6888 -8.43088 -55.4865 -41.942 -8.33487 -55.0706 -42.2073 -8.25269 -54.655 
-42.4839 -8.18406 -54.2405 -42.771 -8.12871 -53.8277 -43.0678 -8.08634 -53.4172 
-43.3735 -8.05668 -53.0098 -43.6873 -8.03944 -52.6062 -44.0084 -8.03442 -52.207 
-44.3362 -8.0417 -51.8131 -44.67 -8.06147 -51.4255 -45.0093 -8.09387 -51.045 
-45.3535 -8.13909 -50.6727 -45.702 -8.19727 -50.3094 -46.0541 -8.2686 -49.9561 
-46.4092 -8.35324 -49.6136 -46.7668 -8.45135 -49.283 -47.1262 -8.5631 -48.9651 
-47.4868 -8.68865 -48.6608 -47.8481 -8.82818 -48.3712 -48.2093 -8.98184 -48.097 
-48.57 -9.14981 -47.8393 -48.9295 -9.33226 -47.599 -49.2872 -9.52934 -47.3769 
-49.6427 -9.74102 -47.1737 -49.996 -9.96648 -46.9881 -50.3477 -10.2047 -46.8186 
-67.3682 -6.90743 -41.5894 -67.7402 -7.07203 -41.3141 -68.1181 -7.25002 -41.0462 
-68.5016 -7.44103 -40.7859 -68.8901 -7.64467 -40.5332 -69.2834 -7.86054 -40.2883 
-69.6808 -8.08826 -40.0511 -70.0821 -8.32745 -39.8218 -70.4868 -8.57771 -39.6006 
-70.8945 -8.83865 -39.3874 -71.3047 -9.10988 -39.1824 -71.717 -9.39102 -38.9857 
-72.131 -9.68168 -38.7974 -72.5463 -9.98147 -38.6175 -72.9624 -10.29 -38.4463 
-73.379 -10.6069 -38.2837 -73.7955 -10.9317 -38.1298 -74.2116 -11.2641 -37.9848 
-74.6268 -11.6037 -37.8488 -75.0408 -11.9501 -37.7217 -75.453 -12.303 -37.6039 
-75.8631 -12.6618 -37.4952 -76.2707 -13.0263 -37.3959 -76.6752 -13.396 -37.3061 
-77.0763 -13.7705 -37.2257 -77.4736 -14.1495 -37.1549 -77.8667 -14.5326 -37.0939 
-78.255 -14.9194 -37.0427 -78.6382 -15.3095 -37.0013 -79.0159 -15.7025 -36.97 
-79.3876 -16.098 -36.9487 -79.7529 -16.4957 -36.9377 -80.1114 -16.8951 -36.9369 
-80.4627 -17.2959 -36.9464 -80.8063 -17.6976 -36.9665 -81.1418 -18.0999 -36.9971 
-81.4687 -18.5024 -37.0384 -81.7867 -18.9047 -37.0904 -82.0954 -19.3064 -37.1533 
-82.3942 -19.7071 -37.2271 -82.6828 -20.1065 -37.3119 -82.9609 -20.5042 -37.4078 
-83.2286 -20.9002 -37.5146 -83.4863 -21.2945 -37.6319 -83.734 -21.6871 -37.7594 
-83.9723 -22.0781 -37.8969 -84.2012 -22.4676 -38.044 -84.4211 -22.8555 -38.2004 
-84.6323 -23.2418 -38.3659 -84.8351 -23.6267 -38.5402 -85.0296 -24.0102 -38.7229 
-85.2162 -24.3922 -38.9137 -85.3952 -24.7729 -39.1124 -85.5669 -25.1522 -39.3187 
-85.7314 -25.5302 -39.5322 -85.8891 -25.9069 -39.7526 -86.0403 -26.2824 -39.9798 
-86.1852 -26.6566 -40.2132 -86.3241 -27.0297 -40.4528 -86.4573 -27.4017 -40.6981 
-86.585 -27.7725 -40.9489 -86.7075 -28.1423 -41.2049 -86.8246 -28.5109 -41.4663 
-86.9362 -28.8784 -41.7332 -87.0419 -29.2448 -42.0059 -87.1418 -29.6098 -42.2846 
[...]
POINT_DATA 2216
FIELD FieldData 2
Thickness 1 2216 double
1.7339113287 2.0430907933 2.3744872696 2.7011464683 3.0475232776 3.4104141523 3.76848082 4.1411490883 4.5191935253 
4.8960943827 5.2794382676 5.6627616272 6.0406361488 6.4163608287 6.7860314337 7.1458788932 7.4922523371 7.8184802178 
8.1027343167 8.3528072537 8.5581425376 8.7183308944 8.8359993088 8.9151486215 8.9596117952 8.9683998264 8.9515600013 
8.9068145751 8.8425831738 8.755643108 8.6562862611 8.5421406279 8.4167459872 8.2861980796 8.1528266834 8.0166673878 
7.8798992702 7.7480596838 7.6235942252 7.5089740246 7.4066779105 7.3183589022 7.2421945076 7.175362097 7.1148837783 
7.0576123335 7.0002738696 6.939478978 6.8675420633 6.7834109526 6.6839487133 6.5655942671 6.420141155 6.246007988 
6.0549927619 5.8550753788 5.646191718 5.4462420067 5.263756688 5.1071144846 4.9845154644 4.9024314802 4.8603566855 
4.8542768464 4.879794893 4.932582413 5.0041380924 5.0909875546 5.1900679514 5.2910713317 5.3788584512 5.4322559882 
5.4522509123 5.4474114375 5.4281927396 5.3885618205 5.342503999 5.2892934679 5.2247326399 5.1591610718 5.0949988568 
5.034653472 4.9805458484 4.9350753315 4.9006587886 4.8797050718 4.8740181757 4.8830198848 4.9055258395 4.940352432 
4.9863163685 5.0422385834 5.10692442 5.1757763763 5.2388883146 5.2977826298 5.344854406 5.375895376 5.40696728 
5.4236105168 5.4417160702 5.4575907511 5.4649738744 5.4735909583 5.483087464 5.4888427442 5.4879379401 5.4865439098 
5.4840594421 5.4799036763 5.4703268128 5.4524079416 5.4315953305 5.4076060412 5.3810435398 5.3527496155 5.3235560097 
5.2919658818 5.2578187686 5.2255108543 5.1958213657 5.1695036007 5.1473229154 5.130068954 5.1185663699 5.1103012831 
5.1055445277 5.1067524173 5.1135659833 5.1256106739 5.1425256488 5.1593795756 5.177927378 5.2001128679 5.225560567 
5.2519613719 5.2748797467 5.2998450446 5.3264970913 5.3493656587 5.3695439994 5.3902019639 5.4083681958 5.4197105916 
5.4303637519 5.4389945199 5.4377352216 5.4346373038 5.4293781525 5.4134004296 5.3945160538 5.3748459576 5.3513589559 
5.3234645967 5.2974798938 5.2743281067 5.2515696526 5.2283006365 5.21028165 5.1980258271 5.1920327507 5.1857099419 
5.1845760041 5.1910495572 5.2056466911 5.2263102265 5.2491315385 5.28150966 5.3239886388 5.3768661765 5.4307673129 
5.4923033454 5.5619367205 5.6388579708 5.7172722512 5.7970689966 5.8822075399 5.9720219841 6.0658375911 6.1570723567 
6.248420207 6.3417674753 6.436384332 6.5266000065 6.6105706089 6.6931676737 6.7610723033 6.8180739002 6.8510122044 
6.8365191599 6.7409838166 6.6220860035 6.4999017419 6.3866977733 6.2849482759 6.1971385956 6.1257286137 6.073204638 
6.0408616411 6.0252898301 6.0219065324 6.0261247301 6.0333622895 6.0390402025 6.0195999742 5.8899417942 5.6831345924 
5.4604727345 5.229038814 4.9924350135 4.7543747029 4.5186251095 4.2700418327 4.0245969234 3.7869401769 3.5408637702 
3.2939394582 3.0602378134 2.8137913653 2.5705183721 2.345731062 2.0998435646 1.8639656274 1.6513750452 1.4179768201 
1.1912208556 0.99224823377 0.82727972598 0.62946692176 0.45554386277 0.31064353539 0.19339308045 0.10319615569 0.044373353237 
0.039650242984 0.058271671695 0.066274921753 0.063206208596 0.058262575586 0.05841499759 0.06326289842 0.075659515242 0.10243677023 
0.14062004268 0.18112840405 0.21451175286 0.23155863416 0.22373934634 0.18458594485 0.12241369364 0.1102605574 0.18952509663 
0.28210284562 0.35164456629 0.39344056073 0.40989774676 0.40422271401 0.37986707457 0.34036832746 0.28930129007 0.23024423855 
0.16646537701 0.10020174502 0.037485010084 0.05001338774 0.11531420291 0.18180520792 0.24571120527 0.30548026835 0.35990019901 
0.37389522897 0.38901167833 0.40836254998 0.43089024331 0.45649331298 0.48473664154 0.51536116952 0.54827398534 0.56692849354 
0.57510178344 0.58373084795 0.59272055644 0.60120935226 0.60790227053 0.61129551174 0.60979566218 0.60188512814 0.58130027026 
0.51601465425 0.43707435802 0.34239592652 0.23009479563 0.10007030572 0.069955767126 0.24395363052 0.44970812027 0.68435156688 
0.94715402833 1.203834558 1.4869088066 7.8237902968 7.8176500251 7.8220978093 7.8369710642 7.8619313368 7.8904425175 
7.9238999668 7.9618219715 7.993185464 8.0208841965 8.0385685759 8.0402443089 8.0226561065 7.9917573073 7.9535021572 
7.9020506129 7.8494283618 7.7850959292 7.7207275386 7.6526974132 7.5791568818 7.5066243546 7.4334653424 7.3544956672 
7.2774007493 7.2024663715 7.1227064686 7.043388644 6.9669624858 6.8875467785 6.8071240674 6.7301817808 6.6468498176 
6.5663176144 6.4843835765 6.4010006429 6.3201905989 6.2353054675 6.1564701692 6.0766318358 6.0027581182 5.9377810477 
5.8778121242 5.8243273205 5.7808293764 5.7474497852 5.7242898778 5.7113244473 5.7049577516 5.7056126346 5.7141020638 
5.7296683668 5.7515460375 5.7789845758 5.8065293093 5.836271126 5.8690602686 5.9041492999 5.9365412338 5.9660544642 
5.9953851159 6.0224538946 6.041160534 6.0586192971 6.0736128728 6.0790875725 6.0830946619 6.0859260503 6.079542109 
6.0728726809 6.0662539455 6.0600072655 6.0475927144 6.0359384458 6.0256370851 6.0169454819 6.0101356601 6.0004078491 
5.9912715027 5.9845796524 5.9805406894 5.9793189812 5.9798215707 5.9764157757 5.9754973633 5.9770772511 5.9811906765 
5.9879927285 5.991356332 5.9962568836 6.004489849 6.0162765701 6.0318410063 6.0511251567 6.0676302099 6.0887361164 
6.1147149678 6.1458097622 6.1822955954 6.2244242121 6.2658994102 6.3134847308 6.3668356665 6.4253187975 6.4883118733 
6.5522099449 6.6150922434 6.6806457957 6.7483389928 6.81639144 6.8790922809 6.9425119641 7.0061372539 7.065364625 
7.1202793707 7.1740749918 7.2255903996 7.2684035403 7.3088434755 7.3464114897 7.3773018059 7.40161566 7.4228238917 
7.4413698714 7.45612267 7.4657646691 7.4738512777 7.4802657212 7.4848970048 7.4815482634 7.4756904809 7.467418718 
7.450192704 7.4287753623 7.4009758466 7.3647108839 7.3250256601 7.2749365759 7.2224650652 7.1641172619 7.1000208527 
7.0343560073 6.9644818504 6.8901193391 6.815707481 6.7419241621 6.6694092584 6.5945499061 6.5222200182 6.4531860164 
6.3879849047 6.3271593567 6.2712395426 6.2207588724 6.1762477713 6.1358881837 6.1003607339 6.0718698307 6.0502321053 
6.035136832 6.0263165385 6.0173365303 6.0103410654 6.0080802314 6.0064245357 6.0006277237 5.998350289 5.9893149129 
5.9791797089 5.964447533 5.9438327735 5.9186313293 5.885491059 5.8469403637 5.7999239394 5.7484861464 5.6894477537 
5.6333544067 5.5715486836 5.5120458789 5.458594354 5.4089440065 5.3605671017 5.3213260096 5.2920778047 5.2726396437 
5.256444206 5.2523686048 5.2610919469 5.282843147 5.3077340659 5.3419894012 5.3836719729 5.428107485 5.4691848457 
5.5112323541 5.550091677 5.5779513176 5.6024208782 5.6178310598 5.6250977477 5.6283041292 5.618376001 5.6057527733 
5.5861220696 5.5601223817 5.5332230745 5.5045384769 5.4696733953 5.4357307408 5.4031916594 5.3725482916 5.3442762388 
5.3141733362 5.2877030204 5.2654631067 5.2479446294 5.2356348161 5.2290213595 5.2285941634 5.2348382453 5.2482459626 
5.2693110102 5.2983647808 5.335132189 5.3791948833 5.4301157002 5.4874806533 5.548020957 5.6123362414 5.6812570352 
5.754355138 5.8312092454 5.9114018936 5.9884232718 6.0650779894 6.1432402292 6.2185565538 6.2869366216 6.3547080146 
6.4114035339 6.4633079877 6.5060541896 6.5399190553 6.5720206711 6.5949085622 6.6159164778 6.6376139843 6.6605875001 
6.6843223269 6.7064888111 6.7325423174 6.7631170173 6.7988617681 6.8404286668 6.8884816633 6.9436988702 7.0066094875 
7.0771458601 7.1550563858 7.2400603484 7.3318307891 7.4300027806 7.534178663 7.6438175677 7.7579593054 7.8755169303 
7.9953963936 8.1164909779 8.2376892361 8.3578728202 8.4759202941 8.5907152847 8.6965303656 8.7944723956 8.8852151723 
8.9605888608 9.0286842107 9.0863266138 9.1352920038 9.1798162601 9.2168981945 9.2487667536 9.2781101878 9.3021647467 
9.3204716855 9.3354241645 9.3401118085 9.3385707514 9.3269746268 9.3017901405 9.262755085 9.2099144517 9.146692684 
9.0749842548 8.9955901989 8.9138088661 8.8281617464 8.7414265805 8.656883465 8.5733178929 8.4968787298 8.4556051711 
8.3887033333 8.3237899686 8.2587216563 8.198235231 8.1432991329 8.0944151558 8.0520732927 8.0155042896 7.9838030714 
5.7719748583 5.7385030363 5.7008153859 5.675942567 5.6563080182 5.639590837 5.6257470953 5.6147338364 5.6065049756 
5.5955296083 5.5875605246 5.5825356913 5.5803878567 5.5810358958 5.5843967085 5.5903801822 5.5988997691 5.6098531188 
5.623137263 5.6366618812 5.6509520943 5.6672045197 5.6852670541 5.7049912824 5.7262174122 5.7487903408 5.7725668982 
5.7974713971 5.8234485855 5.8504399374 5.8779327716 5.9021580655 5.9271408774 5.9528285953 5.9791722387 6.0061215386 
6.0336325432 6.0616628722 6.0866352174 6.1093563908 6.1323326832 6.155505063 6.1786815241 6.1982173641 6.2129230289 
6.2267358364 6.2394180859 6.2435182212 6.2443940501 6.2439497814 6.2353789014 6.2231607426 6.2098272962 6.1883990128 
6.1639584261 6.1386893321 6.106696987 6.0714388761 6.0356759571 5.9973746699 5.9530704141 5.9087438785 5.8649603532 
5.8212883196 5.7740240637 5.7294600664 5.6879815581 5.6499124256 5.6137792894 5.5765978131 5.5436430785 5.5152363143 
5.4917029794 5.4693867822 5.4491445046 5.4346097371 5.4261238087 5.4240004174 5.4207427194 5.4243260378 5.4351249497 
5.4533324493 5.4733736942 5.4968349088 5.5264200578 5.5617398823 5.598905679 5.6356585499 5.6768994047 5.7222633659 
5.7692011663 5.8123852937 5.8584728073 5.9071041018 5.9556624846 5.9984759121 6.0426581511 6.087846715 6.1297924447 
6.1657194844 6.2015318896 6.2368979246 6.265040477 6.2880563531 6.309644617 6.3297704791 6.3421017146 6.3502400565 
6.3572675216 6.3631981874 6.3680534065 6.3650527914 6.3599914131 6.354081793 6.3473473755 6.3398003377 6.3295760308 
6.3130717684 6.2958526921 6.2779256742 6.2593010168 6.2400315361 6.2145395591 6.1867590508 6.1589197689 6.1312503752 
6.1020569021 6.0663759637 6.0314306019 5.9974564275 5.9596773812 5.9186840571 5.8793362606 5.8395618964 5.7942877489 
5.7513920926 5.7097863578 5.6624159256 5.6182008928 5.5766149006 5.5296582616 5.4866810376 5.4479327639 5.4044628909 
5.3649280216 5.3298960127 5.2909561598 5.2549971043 5.2236242182 5.1887213582 5.1564360529 5.1288489382 5.0987787602 
5.070502658 5.0470647614 5.0242034312 5.0005503715 4.9818285921 4.9677337177 4.9504424321 4.9348867818 4.9229491889 
4.9144947907 4.9085230256 4.8991807675 4.8932889123 4.8907650971 4.8915139343 4.8954492187 4.902485629 4.912533453 
4.9226904119 4.9332773052 4.9467474593 4.9630180793 4.9820038881 5.0036145293 5.0277611048 5.0543659661 5.0833403121 
5.1145954973 5.1480573891 5.1817223421 5.2146601315 5.2495400478 5.2862816237 5.3248061625 5.3650401959 5.4068929526 
5.4502932768 5.4951630668 5.5414256662 5.5832314939 5.6259561574 5.6697694388 5.7146010842 5.7603861763 5.8070405518 
5.8469452438 5.8868197081 5.926872476 5.9665023546 5.9962875888 6.0254145855 6.0521786605 6.0707191871 6.0899181725 
6.1067158391 6.1192169703 6.1339418126 6.1498485379 6.1623906402 6.1786896426 6.1987400353 6.2189768499 6.2384879745 
6.2614227649 6.2876932375 6.3092268994 6.3336481256 6.3610792621 6.3848240315 6.4095150612 6.4371770354 6.462475039 
6.4879235138 6.5165861486 6.5453998232 6.5725707459 6.6032028072 6.6373569111 6.6676441567 6.7012147415 6.7385599427 
6.777411873 6.8148765859 6.8563661408 6.9019288825 6.9481960755 6.9944337576 7.0446638491 7.0986003621 7.1513805806 
7.2033382877 7.2577335972 7.3123200151 7.3612457735 7.4113783494 7.4594844719 7.500793727 7.5421120246 7.5761328998 
7.6054898888 7.6318274526 7.6471619731 7.6605879048 7.662921405 7.6598533103 7.6507845145 7.631574856 7.6103959378 
7.5858617219 7.5526522867 7.5185636866 7.4838382847 7.4487154493 7.4062881983 7.3640297308 7.3222619041 7.2812046454 
7.2410732737 7.1979458655 7.1538229036 7.1112512889 7.070421064 7.0315289099 6.9931325949 6.9514249914 6.9119880723 
6.8749350498 6.8403921902 6.8002905393 6.7624681045 6.7274138991 6.6908538754 6.6525070351 6.6173191127 6.5817680511 
6.543789878 6.5094465538 6.4742694914 6.4380590679 6.4060287077 6.3722369753 6.3396161657 6.3117747005 6.281451807 
6.2536785205 6.2295591044 6.2005732029 6.1757560742 6.1483512345 6.1208267819 6.0938238108 6.0627089519 6.0350060425 
5.9997144845 5.9676779273 5.9317748064 5.8952582674 5.860906023 5.8203684153 5.5273913605 5.5040177961 5.4845033339 
5.465019093 5.4478617664 5.4345128064 5.4248585424 5.4187786544 5.4161588489 5.4168656596 5.4207841579 5.4277829991 
5.4377306216 5.4505001761 5.4659551149 5.483055515 5.4998004933 5.518730976 5.5396969754 5.5625537006 5.5871473523 
5.6133282128 5.6409539958 5.6698737299 5.6999454816 5.7310255517 5.762966183 5.7899825393 5.8168468042 5.8439100519 
5.8710430984 5.8981083257 5.9249750233 5.9452424605 5.962352573 5.9786113885 5.9939036723 5.9999537835 6.001738662 
6.0020053807 5.9909577123 5.9775955223 5.9618455502 5.9368376749 5.9122018977 5.8842672106 5.8509295709 5.818918333 
5.7867410591 5.7493188291 5.714183355 5.681543975 5.6505237102 5.6167826746 5.5865311857 5.5599657904 5.5373034378 
5.5187368436 5.504389789 5.4891543616 5.4773811386 5.4688133662 5.4631183814 5.4599947975 5.4590960944 5.4573405758 
5.4539424645 5.4516818617 5.4502363956 5.4492902609 5.4483848714 5.4407472455 5.4325315362 5.4234161221 5.4130925297 
5.4008645883 5.3800467669 5.3571645517 5.332718383 5.3073836944 5.2818578277 5.2498484812 5.2189094952 5.1897496868 
5.1630414638 5.1394544482 5.1155913218 5.0928254756 5.0749345203 5.0625600251 5.0563478005 5.0542927686 5.0534458713 
5.0601968506 5.0751593617 5.0989528163 5.1223115834 5.1536199437 5.1933862286 5.2374248211 5.2793019692 5.3274695164 
5.3813527179 5.4289432534 5.4791293256 5.5332253199 5.5829695486 5.6296563101 5.6786367941 5.7241821059 5.7626471154 
5.8019112491 5.8378324858 5.8640175442 5.8896197106 5.9114929394 5.9219809873 5.9306734279 5.9356701768 5.9295450145 
5.9223714751 5.9129187596 5.8935013788 5.8739317933 5.8539070557 5.824661585 5.7961742222 5.7686468089 5.7343286769 
5.7003956693 5.6683443357 5.6341349984 5.5981539979 5.5649457186 5.5347374903 5.5009181011 5.4697001491 5.4422821691 
5.4188853766 5.3930669481 5.3710623186 5.3537222924 5.3412150003 5.3293888776 5.3198814006 5.3156259859 5.3167655632 
5.322339479 5.3270480079 5.3373125464 5.3532350877 5.3749327382 5.3953659592 5.4199114847 5.4497968867 5.4847672281 
5.5163858558 5.5506709378 5.5890041391 5.6299343965 5.6648160235 5.7028541931 5.7438631672 5.779882553 5.8143300839 
5.8510110782 5.8843370525 5.912320461 5.9418848855 5.9678073766 5.9868470409 6.0069061648 6.0213535069 6.0295645444 
6.0386460841 6.0407415277 6.0384382876 6.0372343917 6.0283221696 6.016382447 6.0058212232 5.9864586125 5.9657792971 
5.9467784002 5.9166600161 5.8881196406 5.8573173486 5.8194955107 5.7839484079 5.7390072093 5.6947329485 5.6481083702 
5.6002481162 5.558715798 5.5215090723 5.4865565568 5.4605857394 5.4441335888 5.4377307717 5.4419284568 5.4570881667 
5.4827684912 5.517360861 5.5585844139 5.6081553522 5.665282179 5.7285995285 5.7966016887 5.8677725418 5.9364978386 
6.0020409918 6.0663810552 6.128673377 6.1835111628 6.2333930018 6.2809937783 6.3265215337 6.3670682884 6.402762116 
6.4371899902 6.4705500118 6.5030532596 6.5314393993 6.557422228 6.5833032739 6.6092864881 6.6355664183 6.6623535983 
6.6867555333 6.7106813491 6.7362360591 6.763657027 6.7930927631 6.824673779 6.8529349587 6.8819979393 6.9131968979 
6.9454489308 6.9723105376 7.0013025821 7.0289400973 7.0519081882 7.0766868668 7.0921866494 7.1097303544 7.1166325132 
7.1239338999 7.120718808 7.1161891608 7.1038811475 7.0929921283 7.0717339511 7.0510711294 7.0267548194 6.9945095318 
6.9608740321 6.9250947459 6.8805260006 6.8306507794 6.7771090128 6.7192638093 6.6568399101 6.5909080584 6.5228641427 
6.4514573899 6.3810743059 6.3129706186 6.2482730725 6.1878867243 6.1324872172 6.0821205466 6.0366812818 5.9960732168 
5.960206358 5.9289991947 5.9023717253 5.876903849 5.8537056743 5.8345883117 5.8194992424 5.8083945495 5.8002302868 
5.7895525273 5.782508484 5.7790875387 5.7771083541 5.7720219066 5.7703207442 5.7708811014 5.7660934601 5.7645493003 
5.761921981 5.7562301262 5.7537071306 5.7438257688 5.7364523913 5.7254085827 5.7128495053 5.7005249974 5.6827445458 
5.66818084 5.6476689754 5.628286693 5.6110784726 5.587419625 5.5680924607 5.5476657178 5.5267537183 4.715611677 
4.7032538949 4.6973101891 4.6956157786 4.6941180082 4.6979976301 4.7069107619 4.7205029065 4.7384285619 4.7603408253 
4.7837150869 4.8053403969 4.8300438987 4.8576683217 4.8880595353 4.9210699601 4.956539571 4.994318172 5.0288854155 
5.0639317312 5.1008239321 5.139409836 5.17953565 5.2210606025 5.2638393619 5.3023398719 5.3393975033 5.3772157745 
5.4156700885 5.4546237194 5.4927631491 5.5232543423 5.5538033094 5.5843335791 5.6147666996 5.6365392712 5.6567698245 
5.6768173136 5.6952392968 5.7050375802 5.7147334442 5.7242646969 5.7291380077 5.7293838991 5.7295339438 5.7295167736 
5.7243114056 5.7159769366 5.7075115973 5.6988297634 5.6878561513 5.6717750103 5.6554888258 5.6389239566 5.6220007228 
5.60414379 5.5807495779 5.5569633059 5.5327040989 5.5078914282 5.4824487277 5.4564164929 5.4303252211 5.4010826997 
5.3730840983 5.3471714906 5.3239896207 5.3041876486 5.2884166515 5.2772676083 5.2710136097 5.2698954331 5.2741085574 
5.2823983693 5.2928804946 5.308854323 5.3305039335 5.3579028345 5.3906315281 5.4236385283 5.4567383565 5.4930767963 
5.5321404937 5.5640480348 5.5958952985 5.62851742 5.6491536469 5.6690368282 5.681662017 5.6855529776 5.6876732863 
5.6753171226 5.6602336635 5.64062162 5.6083539012 5.5735741107 5.5361553515 5.4862938254 5.4332516205 5.3791894169 
5.3249025687 5.2711918036 5.218859778 5.165294602 5.1142247167 5.0675074293 5.025883096 4.990084231 4.9607134782 
4.9378708536 4.9215365946 4.911695053 4.908346899 4.9114836149 4.9211105541 4.9372242402 4.9598395044 4.9889039546 
5.021451495 5.0563907139 5.0964315897 5.1411900699 5.1902851616 5.2433295485 5.2948687114 5.3454091963 5.3984610883 
5.4526333081 5.4980999545 5.5447154333 5.5853895 5.6214863956 5.6541885046 5.6792400984 5.7021240252 5.7160382069 
5.7290793923 5.7321990326 5.7363466442 5.7302352093 5.7245473165 5.7148894588 5.7007440834 5.6881275236 5.6730575959 
5.6548439236 5.63896671 5.6255753869 5.6135343847 5.5985361239 5.5867576797 5.5783376234 5.5734242775 5.5720972165 
5.574277651 5.5760912395 5.5795959295 5.5862825147 5.5959870865 5.6085587745 5.6238471129 5.6416905785 5.6619297839 
5.6839388016 5.7033855493 5.7246872817 5.7476831 5.7722003986 5.79807101 5.8251315174 5.8532218175 5.8798475572 
5.9031311537 5.9267967467 5.9506934018 5.9746587504 5.9985216811 6.0169432125 6.0321804255 6.0466770689 6.0602754419 
6.0692053087 6.0711858626 6.0716286829 6.0704466428 6.0579112763 6.0442668214 6.0297380791 6.0079449551 5.9833479101 
5.9588508752 5.9339783813 5.9025784517 5.8723725311 5.8434557803 5.8158738513 5.7862720005 5.7556128102 5.7267247708 
5.6996420249 5.6743864595 5.6509825675 5.6294320693 5.6056299191 5.583910542 5.5642586563 5.5466735781 5.5311408137 
5.5176371462 5.5061525385 5.4966604171 5.4891414082 5.4835762538 5.4772744065 5.4727793608 5.4709643558 5.4722001412 
5.4768776665 5.485392848 5.4981357094 5.5155139313 5.537948161 5.5657398601 5.5934000013 5.6253503077 5.66152772 
5.7017746381 5.7414372156 5.7797379584 5.8209800076 5.8574515925 5.8915686807 5.9224608946 5.9455704138 5.964965224 
5.9738570518 5.9785453309 5.9708580076 5.961085015 5.9356877425 5.9080744258 5.8780172765 5.8367062186 5.7944434343 
5.7514857555 5.7080868538 5.664525676 5.6173270741 5.5686219899 5.5209173067 5.4744643209 5.4294812791 5.3861987003 
5.3448246113 5.3055820082 5.2686610138 5.234253406 5.2025372485 5.1736874943 5.1478571485 5.1229321845 5.099171284 
5.0785515959 5.0611833404 5.0471960423 5.0367223122 5.0298989405 5.0268517681 5.0277372793 5.0301977281 5.0314253946 
5.0362046205 5.0444333115 5.0559954901 5.0707866113 5.0808940465 5.0921398827 5.1061640044 5.1228954687 5.1342869043 
5.145141029 5.1583775528 5.1692364607 5.1750445542 5.1830080098 5.1865337817 5.1859212746 5.1873141933 5.1785572875 